 Entering Gaussian System, Link 0=/ebi/production/panda/steinbeck/research/gaussian/gaussian09/g09/g09
 Input=/nfs/production/panda/steinbeck/research/md-simulations/LasCMD_Binary/Atieh_et_al/pipeline/bmse000048-L-serine/conf_0.inp
 Output=/nfs/production/panda/steinbeck/research/md-simulations/LasCMD_Binary/Atieh_et_al/pipeline/bmse000048-L-serine/conf_0.log
 Initial command:
 /ebi/production/panda/steinbeck/research/gaussian/gaussian09/g09/l1.exe /nfs/production/panda/steinbeck/research/md-simulations/LasCMD_Binary/Atieh_et_al/pipeline/bmse000048-L-serine/Gau-891.inp -scrdir=/nfs/production/panda/steinbeck/research/md-simulations/LasCMD_Binary/Atieh_et_al/pipeline/bmse000048-L-serine/
 Entering Link 1 = /ebi/production/panda/steinbeck/research/gaussian/gaussian09/g09/l1.exe PID=      1008.
  
 Copyright (c) 1988,1990,1992,1993,1995,1998,2003,2009,2010,
            Gaussian, Inc.  All Rights Reserved.
  
 This is part of the Gaussian(R) 09 program.  It is based on
 the Gaussian(R) 03 system (copyright 2003, Gaussian, Inc.),
 the Gaussian(R) 98 system (copyright 1998, Gaussian, Inc.),
 the Gaussian(R) 94 system (copyright 1995, Gaussian, Inc.),
 the Gaussian 92(TM) system (copyright 1992, Gaussian, Inc.),
 the Gaussian 90(TM) system (copyright 1990, Gaussian, Inc.),
 the Gaussian 88(TM) system (copyright 1988, Gaussian, Inc.),
 the Gaussian 86(TM) system (copyright 1986, Carnegie Mellon
 University), and the Gaussian 82(TM) system (copyright 1983,
 Carnegie Mellon University). Gaussian is a federally registered
 trademark of Gaussian, Inc.
  
 This software contains proprietary and confidential information,
 including trade secrets, belonging to Gaussian, Inc.
  
 This software is provided under written license and may be
 used, copied, transmitted, or stored only in accord with that
 written license.
  
 The following legend is applicable only to US Government
 contracts under FAR:
  
                    RESTRICTED RIGHTS LEGEND
  
 Use, reproduction and disclosure by the US Government is
 subject to restrictions as set forth in subparagraphs (a)
 and (c) of the Commercial Computer Software - Restricted
 Rights clause in FAR 52.227-19.
  
 Gaussian, Inc.
 340 Quinnipiac St., Bldg. 40, Wallingford CT 06492
  
  
 ---------------------------------------------------------------
 Warning -- This program may not be used in any manner that
 competes with the business of Gaussian, Inc. or will provide
 assistance to any competitor of Gaussian, Inc.  The licensee
 of this program is prohibited from giving any competitor of
 Gaussian, Inc. access to this program.  By using this program,
 the user acknowledges that Gaussian, Inc. is engaged in the
 business of creating and licensing software in the field of
 computational chemistry and represents and warrants to the
 licensee that it is not a competitor of Gaussian, Inc. and that
 it will not use this program in any manner prohibited above.
 ---------------------------------------------------------------
  

 Cite this work as:
 Gaussian 09, Revision B.01,
 M. J. Frisch, G. W. Trucks, H. B. Schlegel, G. E. Scuseria, 
 M. A. Robb, J. R. Cheeseman, G. Scalmani, V. Barone, B. Mennucci, 
 G. A. Petersson, H. Nakatsuji, M. Caricato, X. Li, H. P. Hratchian, 
 A. F. Izmaylov, J. Bloino, G. Zheng, J. L. Sonnenberg, M. Hada, 
 M. Ehara, K. Toyota, R. Fukuda, J. Hasegawa, M. Ishida, T. Nakajima, 
 Y. Honda, O. Kitao, H. Nakai, T. Vreven, J. A. Montgomery, Jr., 
 J. E. Peralta, F. Ogliaro, M. Bearpark, J. J. Heyd, E. Brothers, 
 K. N. Kudin, V. N. Staroverov, T. Keith, R. Kobayashi, J. Normand, 
 K. Raghavachari, A. Rendell, J. C. Burant, S. S. Iyengar, J. Tomasi, 
 M. Cossi, N. Rega, J. M. Millam, M. Klene, J. E. Knox, J. B. Cross, 
 V. Bakken, C. Adamo, J. Jaramillo, R. Gomperts, R. E. Stratmann, 
 O. Yazyev, A. J. Austin, R. Cammi, C. Pomelli, J. W. Ochterski, 
 R. L. Martin, K. Morokuma, V. G. Zakrzewski, G. A. Voth, 
 P. Salvador, J. J. Dannenberg, S. Dapprich, A. D. Daniels, 
 O. Farkas, J. B. Foresman, J. V. Ortiz, J. Cioslowski, 
 and D. J. Fox, Gaussian, Inc., Wallingford CT, 2010.
 
 ******************************************
 Gaussian 09:  EM64L-G09RevB.01 12-Aug-2010
                 8-Aug-2012 
 ******************************************
 %mem=32GB
 %nproc=16
 Will use up to   16 processors via shared memory.
 %chk=conf_0.chk
 ------------------------------------------
 # B3LYP/6-31+G Opt=loose int=grid=sg1 Test
 ------------------------------------------
 1/7=-1,14=-1,18=20,19=15,26=2,38=1/1,3;
 2/9=110,12=2,17=6,18=5,40=1/2;
 3/5=1,6=6,7=10,11=2,16=1,25=1,30=1,71=1,74=-5,75=1/1,2,3;
 4//1;
 5/5=2,38=5/2;
 6/7=2,8=2,9=2,10=2,28=1/1;
 7//1,2,3,16;
 1/7=-1,14=-1,18=20,19=15/3(2);
 2/9=110/2;
 99//99;
 2/9=110/2;
 3/5=1,6=6,7=10,11=2,16=1,25=1,30=1,71=1,74=-5,75=1/1,2,3;
 4/5=5,16=3/1;
 5/5=2,38=5/2;
 7//1,2,3,16;
 1/7=-1,14=-1,18=20,19=15/3(-5);
 2/9=110/2;
 6/7=2,8=2,9=2,10=2,19=2,28=1/1;
 99/9=1/99;
 ----------------------------------------------------------------------
 Geometry generated by LasCMD Energy (kcal/mol) = -138.906880 [Gas-Phas
 e]
 ----------------------------------------------------------------------
 Symbolic Z-matrix:
 Charge =  0 Multiplicity = 1
 N                     0.4231   -1.096     0.8966 
 C                     0.1044   -0.224    -0.2518 
 C                     0.7203    1.1677   -0.1207 
 O                     1.3999    1.6094    0.7745 
 C                    -1.435    -0.1195   -0.405 
 O                    -1.9543   -1.3581   -0.8744 
 O                     0.4146    1.9375   -1.212 
 H                     1.4145   -1.3249    0.9219 
 H                     0.1948   -0.6465    1.7818 
 H                     0.5081   -0.7014   -1.1931 
 H                    -1.7096    0.599    -1.205 
 H                    -1.9273    0.1549    0.5449 
 H                    -1.6971   -2.0876   -0.2588 
 H                     0.8102    2.8515   -1.1669 
 

 GradGradGradGradGradGradGradGradGradGradGradGradGradGradGradGradGradGrad
 Berny optimization.
 Initialization pass.
                           ----------------------------
                           !    Initial Parameters    !
                           ! (Angstroms and Degrees)  !
 --------------------------                            --------------------------
 ! Name  Definition              Value          Derivative Info.                !
 --------------------------------------------------------------------------------
 ! R1    R(1,2)                  1.4767         estimate D2E/DX2                !
 ! R2    R(1,8)                  1.0178         estimate D2E/DX2                !
 ! R3    R(1,9)                  1.0187         estimate D2E/DX2                !
 ! R4    R(2,3)                  1.5275         estimate D2E/DX2                !
 ! R5    R(2,5)                  1.5505         estimate D2E/DX2                !
 ! R6    R(2,10)                 1.13           estimate D2E/DX2                !
 ! R7    R(3,4)                  1.2076         estimate D2E/DX2                !
 ! R8    R(3,7)                  1.37           estimate D2E/DX2                !
 ! R9    R(5,6)                  1.4227         estimate D2E/DX2                !
 ! R10   R(5,11)                 1.1098         estimate D2E/DX2                !
 ! R11   R(5,12)                 1.1045         estimate D2E/DX2                !
 ! R12   R(6,13)                 0.9886         estimate D2E/DX2                !
 ! R13   R(7,14)                 0.997          estimate D2E/DX2                !
 ! A1    A(2,1,8)              111.2443         estimate D2E/DX2                !
 ! A2    A(2,1,9)              111.5201         estimate D2E/DX2                !
 ! A3    A(8,1,9)              107.2135         estimate D2E/DX2                !
 ! A4    A(1,2,3)              112.5955         estimate D2E/DX2                !
 ! A5    A(1,2,5)              109.3232         estimate D2E/DX2                !
 ! A6    A(1,2,10)             108.7369         estimate D2E/DX2                !
 ! A7    A(3,2,5)              110.3273         estimate D2E/DX2                !
 ! A8    A(3,2,10)             108.2011         estimate D2E/DX2                !
 ! A9    A(5,2,10)             107.5091         estimate D2E/DX2                !
 ! A10   A(2,3,4)              128.5916         estimate D2E/DX2                !
 ! A11   A(2,3,7)              110.7071         estimate D2E/DX2                !
 ! A12   A(4,3,7)              120.6995         estimate D2E/DX2                !
 ! A13   A(2,5,6)              109.6522         estimate D2E/DX2                !
 ! A14   A(2,5,11)             111.1318         estimate D2E/DX2                !
 ! A15   A(2,5,12)             111.9801         estimate D2E/DX2                !
 ! A16   A(6,5,11)             103.6202         estimate D2E/DX2                !
 ! A17   A(6,5,12)             109.7149         estimate D2E/DX2                !
 ! A18   A(11,5,12)            110.415          estimate D2E/DX2                !
 ! A19   A(5,6,13)             109.9996         estimate D2E/DX2                !
 ! A20   A(3,7,14)             112.989          estimate D2E/DX2                !
 ! D1    D(8,1,2,3)            -67.5073         estimate D2E/DX2                !
 ! D2    D(8,1,2,5)            169.4917         estimate D2E/DX2                !
 ! D3    D(8,1,2,10)            52.3883         estimate D2E/DX2                !
 ! D4    D(9,1,2,3)             52.1359         estimate D2E/DX2                !
 ! D5    D(9,1,2,5)            -70.8651         estimate D2E/DX2                !
 ! D6    D(9,1,2,10)           172.0315         estimate D2E/DX2                !
 ! D7    D(1,2,3,4)             -0.2316         estimate D2E/DX2                !
 ! D8    D(1,2,3,7)            179.2639         estimate D2E/DX2                !
 ! D9    D(5,2,3,4)            122.206          estimate D2E/DX2                !
 ! D10   D(5,2,3,7)            -58.2985         estimate D2E/DX2                !
 ! D11   D(10,2,3,4)          -120.4364         estimate D2E/DX2                !
 ! D12   D(10,2,3,7)            59.0591         estimate D2E/DX2                !
 ! D13   D(1,2,5,6)            -70.954          estimate D2E/DX2                !
 ! D14   D(1,2,5,11)           175.0859         estimate D2E/DX2                !
 ! D15   D(1,2,5,12)            51.0798         estimate D2E/DX2                !
 ! D16   D(3,2,5,6)            164.7063         estimate D2E/DX2                !
 ! D17   D(3,2,5,11)            50.7461         estimate D2E/DX2                !
 ! D18   D(3,2,5,12)           -73.2599         estimate D2E/DX2                !
 ! D19   D(10,2,5,6)            46.9218         estimate D2E/DX2                !
 ! D20   D(10,2,5,11)          -67.0384         estimate D2E/DX2                !
 ! D21   D(10,2,5,12)          168.9555         estimate D2E/DX2                !
 ! D22   D(2,3,7,14)          -179.2831         estimate D2E/DX2                !
 ! D23   D(4,3,7,14)             0.2583         estimate D2E/DX2                !
 ! D24   D(2,5,6,13)            56.7988         estimate D2E/DX2                !
 ! D25   D(11,5,6,13)          175.5114         estimate D2E/DX2                !
 ! D26   D(12,5,6,13)          -66.5785         estimate D2E/DX2                !
 --------------------------------------------------------------------------------
 Trust Radius=3.00D-01 FncErr=1.00D-05 GrdErr=1.00D-04
 Number of steps in this run=     69 maximum allowed number of steps=    100.
 GradGradGradGradGradGradGradGradGradGradGradGradGradGradGradGradGradGrad

                          Input orientation:                          
 ---------------------------------------------------------------------
 Center     Atomic      Atomic             Coordinates (Angstroms)
 Number     Number       Type             X           Y           Z
 ---------------------------------------------------------------------
      1          7           0        0.423100   -1.096000    0.896600
      2          6           0        0.104400   -0.224000   -0.251800
      3          6           0        0.720300    1.167700   -0.120700
      4          8           0        1.399900    1.609400    0.774500
      5          6           0       -1.435000   -0.119500   -0.405000
      6          8           0       -1.954300   -1.358100   -0.874400
      7          8           0        0.414600    1.937500   -1.212000
      8          1           0        1.414500   -1.324900    0.921900
      9          1           0        0.194800   -0.646500    1.781800
     10          1           0        0.508100   -0.701400   -1.193100
     11          1           0       -1.709600    0.599000   -1.205000
     12          1           0       -1.927300    0.154900    0.544900
     13          1           0       -1.697100   -2.087600   -0.258800
     14          1           0        0.810200    2.851500   -1.166900
 ---------------------------------------------------------------------
                    Distance matrix (angstroms):
                    1          2          3          4          5
     1  N    0.000000
     2  C    1.476745   0.000000
     3  C    2.499513   1.527530   0.000000
     4  O    2.878930   2.468394   1.207617   0.000000
     5  C    2.469869   1.550530   2.526466   3.523773   0.000000
     6  O    2.976099   2.431473   3.755158   4.772377   1.422722
     7  O    3.694373   2.385433   1.370029   2.241573   2.881583
     8  H    1.017796   2.075070   2.789621   2.938036   3.366497
     9  H    1.018700   2.078992   2.680854   2.748819   2.777782
    10  H    2.128328   1.130013   2.165319   3.163314   2.176085
    11  H    3.440662   2.208283   2.720945   3.822083   1.109796
    12  H    2.685670   2.214972   2.911799   3.638481   1.104520
    13  H    2.610262   2.591998   4.057077   4.932233   1.990851
    14  H    4.471089   3.285462   1.984389   2.378990   3.801086
                    6          7          8          9         10
     6  O    0.000000
     7  O    4.072670   0.000000
     8  H    3.817933   4.024498   0.000000
     9  H    3.490044   3.960834   1.639306   0.000000
    10  H    2.568314   2.640624   2.384017   2.991856   0.000000
    11  H    1.999854   2.510748   4.240884   3.754861   2.570870
    12  H    2.074683   3.427660   3.674175   2.583693   3.112084
    13  H    0.988577   4.644276   3.414355   3.133704   2.767196
    14  H    5.044675   0.996960   4.708565   4.616227   3.565817
                   11         12         13         14
    11  H    0.000000
    12  H    1.818452   0.000000
    13  H    2.848380   2.393268   0.000000
    14  H    3.380030   4.206640   5.613012   0.000000
 Stoichiometry    C3H7NO3
 Framework group  C1[X(C3H7NO3)]
 Deg. of freedom    36
 Full point group                 C1      NOp   1
 Largest Abelian subgroup         C1      NOp   1
 Largest concise Abelian subgroup C1      NOp   1
                         Standard orientation:                         
 ---------------------------------------------------------------------
 Center     Atomic      Atomic             Coordinates (Angstroms)
 Number     Number       Type             X           Y           Z
 ---------------------------------------------------------------------
      1          7           0        0.577639    1.680666   -0.139533
      2          6           0        0.239479    0.260752   -0.363738
      3          6           0       -1.218893   -0.054075   -0.036045
      4          8           0       -2.077995    0.691925    0.368634
      5          6           0        1.185905   -0.631508    0.480238
      6          8           0        2.497311   -0.592482   -0.070061
      7          8           0       -1.494314   -1.375091   -0.272779
      8          1           0        0.095859    2.283713   -0.802956
      9          1           0        0.309638    1.985607    0.794778
     10          1           0        0.418376    0.012392   -1.451508
     11          1           0        0.901715   -1.701500    0.402767
     12          1           0        1.216373   -0.316611    1.538480
     13          1           0        2.818101    0.341592   -0.113479
     14          1           0       -2.442496   -1.615685   -0.080441
 ---------------------------------------------------------------------
 Rotational constants (GHZ):      4.2954736      1.8361025      1.3852295
 Standard basis: 6-31+G (6D, 7F)
 There are   105 symmetry adapted basis functions of A   symmetry.
 Integral buffers will be    131072 words long.
 Raffenetti 2 integral format.
 Two-electron integral symmetry is turned on.
   105 basis functions,   210 primitive gaussians,   105 cartesian basis functions
    28 alpha electrons       28 beta electrons
       nuclear repulsion energy       318.3777493622 Hartrees.
 NAtoms=   14 NActive=   14 NUniq=   14 SFac= 1.00D+00 NAtFMM=   50 NAOKFM=F Big=F
 One-electron integrals computed using PRISM.
 NBasis=   105 RedAO= T  NBF=   105
 NBsUse=   105 1.00D-06 NBFU=   105
 Harris functional with IExCor=  402 diagonalized for initial guess.
 ExpMin= 4.38D-02 ExpMax= 5.48D+03 ExpMxC= 8.25D+02 IAcc=2 IRadAn=         1 AccDes= 0.00D+00
 HarFok:  IExCor=  402 AccDes= 0.00D+00 IRadAn=         1 IDoV= 1
 ScaDFX=  1.000000  1.000000  1.000000  1.000000
 FoFCou: FMM=F IPFlag=           0 FMFlag=      100000 FMFlg1=           0
         NFxFlg=           0 DoJE=T BraDBF=F KetDBF=T FulRan=T
         Omega=  0.000000  0.000000  1.000000  0.000000  0.000000 ICntrl=     500 IOpCl=  0
         NMat0=    1 NMatS0=    1 NMatT0=    0 NMatD0=    1 NMtDS0=    0 NMtDT0=    0
         I1Cent=           4 NGrid=           0.
 Petite list used in FoFCou.
 Initial guess orbital symmetries:
       Occupied  (A) (A) (A) (A) (A) (A) (A) (A) (A) (A) (A) (A)
                 (A) (A) (A) (A) (A) (A) (A) (A) (A) (A) (A) (A)
                 (A) (A) (A) (A)
       Virtual   (A) (A) (A) (A) (A) (A) (A) (A) (A) (A) (A) (A)
                 (A) (A) (A) (A) (A) (A) (A) (A) (A) (A) (A) (A)
                 (A) (A) (A) (A) (A) (A) (A) (A) (A) (A) (A) (A)
                 (A) (A) (A) (A) (A) (A) (A) (A) (A) (A) (A) (A)
                 (A) (A) (A) (A) (A) (A) (A) (A) (A) (A) (A) (A)
                 (A) (A) (A) (A) (A) (A) (A) (A) (A) (A) (A) (A)
                 (A) (A) (A) (A) (A)
 The electronic state of the initial guess is 1-A.
 Requested convergence on RMS density matrix=1.00D-08 within 128 cycles.
 Requested convergence on MAX density matrix=1.00D-06.
 Requested convergence on             energy=1.00D-06.
 No special actions if energy rises.
 Keep R1 ints in memory in canonical form, NReq=16514873.
 SCF Done:  E(RB3LYP) =  -398.838615216     A.U. after   13 cycles
             Convg  =    0.7175D-08             -V/T =  2.0058

 **********************************************************************

            Population analysis using the SCF density.

 **********************************************************************

 Orbital symmetries:
       Occupied  (A) (A) (A) (A) (A) (A) (A) (A) (A) (A) (A) (A)
                 (A) (A) (A) (A) (A) (A) (A) (A) (A) (A) (A) (A)
                 (A) (A) (A) (A)
       Virtual   (A) (A) (A) (A) (A) (A) (A) (A) (A) (A) (A) (A)
                 (A) (A) (A) (A) (A) (A) (A) (A) (A) (A) (A) (A)
                 (A) (A) (A) (A) (A) (A) (A) (A) (A) (A) (A) (A)
                 (A) (A) (A) (A) (A) (A) (A) (A) (A) (A) (A) (A)
                 (A) (A) (A) (A) (A) (A) (A) (A) (A) (A) (A) (A)
                 (A) (A) (A) (A) (A) (A) (A) (A) (A) (A) (A) (A)
                 (A) (A) (A) (A) (A)
 The electronic state is 1-A.
 Alpha  occ. eigenvalues --  -19.22017 -19.18146 -19.15594 -14.34841 -10.35642
 Alpha  occ. eigenvalues --  -10.26171 -10.25328  -1.15233  -1.06210  -1.03942
 Alpha  occ. eigenvalues --   -0.92292  -0.77262  -0.68182  -0.62445  -0.55241
 Alpha  occ. eigenvalues --   -0.53532  -0.50711  -0.49268  -0.47855  -0.46573
 Alpha  occ. eigenvalues --   -0.42314  -0.42083  -0.39804  -0.35069  -0.33587
 Alpha  occ. eigenvalues --   -0.31379  -0.28782  -0.26936
 Alpha virt. eigenvalues --   -0.03679  -0.01493  -0.00126   0.02087   0.02680
 Alpha virt. eigenvalues --    0.04268   0.05972   0.06865   0.07347   0.08367
 Alpha virt. eigenvalues --    0.10441   0.10769   0.12273   0.12893   0.13079
 Alpha virt. eigenvalues --    0.15667   0.16508   0.17255   0.17751   0.19143
 Alpha virt. eigenvalues --    0.19680   0.21733   0.22518   0.22784   0.23365
 Alpha virt. eigenvalues --    0.24495   0.24700   0.26337   0.27268   0.27555
 Alpha virt. eigenvalues --    0.29123   0.29432   0.30308   0.31389   0.31845
 Alpha virt. eigenvalues --    0.32908   0.34271   0.35768   0.37883   0.38604
 Alpha virt. eigenvalues --    0.41413   0.50124   0.62853   0.65872   0.71218
 Alpha virt. eigenvalues --    0.73386   0.73761   0.76341   0.79574   0.83988
 Alpha virt. eigenvalues --    0.87991   0.94834   0.96275   1.00698   1.03822
 Alpha virt. eigenvalues --    1.04797   1.06224   1.08781   1.10517   1.11901
 Alpha virt. eigenvalues --    1.15366   1.17946   1.19916   1.21510   1.27732
 Alpha virt. eigenvalues --    1.28627   1.31189   1.32554   1.36075   1.38252
 Alpha virt. eigenvalues --    1.42815   1.47747   1.61475   1.70856   1.83100
 Alpha virt. eigenvalues --    1.94029   1.99083
          Condensed to atoms (all electrons):
              1          2          3          4          5          6
     1  N    7.566973  -0.958015   0.446521  -0.120910   0.210179   0.014176
     2  C   -0.958015  12.243702  -2.682508   0.089088  -1.803962  -0.127426
     3  C    0.446521  -2.682508   7.150400   0.030067   0.319239   0.025731
     4  O   -0.120910   0.089088   0.030067   8.702008  -0.004096  -0.002212
     5  C    0.210179  -1.803962   0.319239  -0.004096   6.448183   0.143183
     6  O    0.014176  -0.127426   0.025731  -0.002212   0.143183   8.457040
     7  O    0.060624  -0.698488   0.244202  -0.273951   0.123908  -0.002306
     8  H    0.294870  -0.038439  -0.006191   0.003344   0.023733   0.000676
     9  H    0.291472   0.008723   0.013595  -0.001950  -0.043458  -0.002551
    10  H   -0.057852   0.439124  -0.020730  -0.002058  -0.080767  -0.007414
    11  H    0.014838  -0.181222   0.020917   0.001208   0.495814  -0.065941
    12  H   -0.027025   0.089609   0.021800  -0.001507   0.242581  -0.063979
    13  H    0.032000  -0.087260   0.019834   0.000119   0.034248   0.180283
    14  H   -0.003009   0.091285  -0.012091  -0.000524  -0.011938   0.000148
              7          8          9         10         11         12
     1  N    0.060624   0.294870   0.291472  -0.057852   0.014838  -0.027025
     2  C   -0.698488  -0.038439   0.008723   0.439124  -0.181222   0.089609
     3  C    0.244202  -0.006191   0.013595  -0.020730   0.020917   0.021800
     4  O   -0.273951   0.003344  -0.001950  -0.002058   0.001208  -0.001507
     5  C    0.123908   0.023733  -0.043458  -0.080767   0.495814   0.242581
     6  O   -0.002306   0.000676  -0.002551  -0.007414  -0.065941  -0.063979
     7  O    8.951662  -0.000432  -0.000125   0.002326   0.006955  -0.004202
     8  H   -0.000432   0.393542  -0.038850  -0.004647  -0.000156   0.000065
     9  H   -0.000125  -0.038850   0.390957   0.004307  -0.000018   0.002909
    10  H    0.002326  -0.004647   0.004307   0.468503  -0.002549   0.003244
    11  H    0.006955  -0.000156  -0.000018  -0.002549   0.506626  -0.038370
    12  H   -0.004202   0.000065   0.002909   0.003244  -0.038370   0.595264
    13  H    0.000342  -0.000305  -0.000041  -0.001192   0.007300  -0.005430
    14  H    0.104211   0.000005   0.000001  -0.000439   0.000115  -0.000052
             13         14
     1  N    0.032000  -0.003009
     2  C   -0.087260   0.091285
     3  C    0.019834  -0.012091
     4  O    0.000119  -0.000524
     5  C    0.034248  -0.011938
     6  O    0.180283   0.000148
     7  O    0.000342   0.104211
     8  H   -0.000305   0.000005
     9  H   -0.000041   0.000001
    10  H   -0.001192  -0.000439
    11  H    0.007300   0.000115
    12  H   -0.005430  -0.000052
    13  H    0.398354   0.000001
    14  H    0.000001   0.382122
 Mulliken atomic charges:
              1
     1  N   -0.764843
     2  C   -0.384210
     3  C    0.429214
     4  O   -0.418625
     5  C   -0.096846
     6  O   -0.549407
     7  O   -0.514726
     8  H    0.372784
     9  H    0.375028
    10  H    0.260144
    11  H    0.234483
    12  H    0.185093
    13  H    0.421747
    14  H    0.450165
 Sum of Mulliken atomic charges =   0.00000
 Mulliken charges with hydrogens summed into heavy atoms:
              1
     1  N   -0.017031
     2  C   -0.124066
     3  C    0.429214
     4  O   -0.418625
     5  C    0.322730
     6  O   -0.127661
     7  O   -0.064561
 Sum of Mulliken charges with hydrogens summed into heavy atoms =   0.00000
 Electronic spatial extent (au):  <R**2>=            841.3613
 Charge=              0.0000 electrons
 Dipole moment (field-independent basis, Debye):
    X=             -1.7023    Y=              0.5370    Z=              0.1860  Tot=              1.7947
 Quadrupole moment (field-independent basis, Debye-Ang):
   XX=            -49.3549   YY=            -42.5422   ZZ=            -40.5757
   XY=              8.8426   XZ=              2.9674   YZ=             -2.1169
 Traceless Quadrupole moment (field-independent basis, Debye-Ang):
   XX=             -5.1973   YY=              1.6154   ZZ=              3.5819
   XY=              8.8426   XZ=              2.9674   YZ=             -2.1169
 Octapole moment (field-independent basis, Debye-Ang**2):
  XXX=            -20.8881  YYY=              2.3232  ZZZ=             -0.6840  XYY=            -12.0648
  XXY=             -8.3540  XXZ=             -2.1530  XZZ=              0.0042  YZZ=              3.4219
  YYZ=              1.5631  XYZ=              2.8367
 Hexadecapole moment (field-independent basis, Debye-Ang**3):
 XXXX=           -655.0789 YYYY=           -279.0917 ZZZZ=            -81.4629 XXXY=            105.2435
 XXXZ=             10.1044 YYYX=              2.9860 YYYZ=             -3.6959 ZZZX=              0.5595
 ZZZY=              0.5054 XXYY=           -162.7104 XXZZ=           -126.2203 YYZZ=            -59.9914
 XXYZ=             -5.3075 YYXZ=              3.1628 ZZXY=              1.1537
 N-N= 3.183777493622D+02 E-N=-1.571314378896D+03  KE= 3.965389914618D+02
 Calling FoFJK, ICntrl=      2127 FMM=F ISym2X=0 I1Cent= 0 IOpClX= 0 NMat=1 NMatS=1 NMatT=0.
 ***** Axes restored to original set *****
 -------------------------------------------------------------------
 Center     Atomic                   Forces (Hartrees/Bohr)
 Number     Number              X              Y              Z
 -------------------------------------------------------------------
      1        7           0.003883386    0.008004490   -0.006597895
      2        6           0.003259473   -0.001959624   -0.002010281
      3        6          -0.017134193   -0.009837603   -0.030016005
      4        8           0.022621653    0.006732380    0.037211730
      5        6           0.000663667    0.012861444   -0.012360452
      6        8          -0.005501416   -0.024797437    0.002123506
      7        8          -0.001190389    0.015461707   -0.013756952
      8        1          -0.000254621   -0.005952246   -0.000855911
      9        1          -0.003661625   -0.001179908    0.001741631
     10        1          -0.007913960    0.009434803    0.016392774
     11        1           0.005231455   -0.003920653    0.012548855
     12        1           0.005644524    0.003597069   -0.001434643
     13        1          -0.001421991    0.004516980   -0.004530885
     14        1          -0.004225964   -0.012961400    0.001544526
 -------------------------------------------------------------------
 Cartesian Forces:  Max     0.037211730 RMS     0.011675212

 GradGradGradGradGradGradGradGradGradGradGradGradGradGradGradGradGradGrad
 Berny optimization.
 Internal  Forces:  Max     0.042767459 RMS     0.008127912
 Search for a local minimum.
 Step number   1 out of a maximum of   69
 All quantities printed in internal units (Hartrees-Bohrs-Radians)
 Mixed Optimization -- RFO/linear search
 Second derivative matrix not updated -- first step.
 ITU=  0
     Eigenvalues ---    0.00230   0.00402   0.00677   0.00766   0.01391
     Eigenvalues ---    0.02088   0.03889   0.04401   0.05007   0.05343
     Eigenvalues ---    0.05493   0.06103   0.11608   0.13748   0.16000
     Eigenvalues ---    0.16000   0.16000   0.16000   0.17113   0.18726
     Eigenvalues ---    0.22071   0.24999   0.25000   0.27606   0.29653
     Eigenvalues ---    0.30570   0.32622   0.33187   0.34945   0.42053
     Eigenvalues ---    0.44546   0.44692   0.48227   0.49754   0.50971
     Eigenvalues ---    1.01087
 RFO step:  Lambda=-1.10527543D-02 EMin= 2.30000000D-03
 Linear search not attempted -- first point.
 Iteration  1 RMS(Cart)=  0.06515517 RMS(Int)=  0.00261698
 Iteration  2 RMS(Cart)=  0.00290613 RMS(Int)=  0.00070264
 Iteration  3 RMS(Cart)=  0.00000604 RMS(Int)=  0.00070262
 Iteration  4 RMS(Cart)=  0.00000001 RMS(Int)=  0.00070262
 Variable       Old X    -DE/DX   Delta X   Delta X   Delta X     New X
                                 (Linear)    (Quad)   (Total)
    R1        2.79064  -0.00496   0.00000  -0.01376  -0.01376   2.77689
    R2        1.92336   0.00106   0.00000   0.00232   0.00232   1.92568
    R3        1.92506   0.00183   0.00000   0.00402   0.00402   1.92908
    R4        2.88661  -0.00098   0.00000  -0.00318  -0.00318   2.88344
    R5        2.93008  -0.00475   0.00000  -0.01653  -0.01653   2.91355
    R6        2.13542  -0.02047   0.00000  -0.06463  -0.06463   2.07079
    R7        2.28206   0.04277   0.00000   0.04185   0.04185   2.32391
    R8        2.58898   0.01237   0.00000   0.02376   0.02376   2.61274
    R9        2.68856   0.02097   0.00000   0.04859   0.04859   2.73715
   R10        2.09721  -0.01288   0.00000  -0.03819  -0.03819   2.05902
   R11        2.08724  -0.00286   0.00000  -0.00833  -0.00833   2.07891
   R12        1.86814  -0.00651   0.00000  -0.01280  -0.01280   1.85535
   R13        1.88398  -0.01350   0.00000  -0.02737  -0.02737   1.85661
    A1        1.94158   0.00525   0.00000   0.05031   0.04841   1.98999
    A2        1.94639   0.00146   0.00000   0.02806   0.02614   1.97254
    A3        1.87123   0.00049   0.00000   0.03972   0.03662   1.90784
    A4        1.96516   0.00162   0.00000   0.01983   0.01980   1.98496
    A5        1.90805  -0.00438   0.00000  -0.01650  -0.01722   1.89083
    A6        1.89782   0.00031   0.00000  -0.01573  -0.01606   1.88176
    A7        1.92557   0.00487   0.00000   0.03500   0.03499   1.96057
    A8        1.88847  -0.00162   0.00000  -0.00652  -0.00620   1.88227
    A9        1.87639  -0.00093   0.00000  -0.01849  -0.01875   1.85764
   A10        2.24435  -0.01261   0.00000  -0.04829  -0.04829   2.19606
   A11        1.93220   0.00121   0.00000   0.00466   0.00465   1.93686
   A12        2.10660   0.01139   0.00000   0.04366   0.04366   2.15026
   A13        1.91379   0.00086   0.00000   0.01232   0.01215   1.92594
   A14        1.93962  -0.00141   0.00000  -0.00720  -0.00855   1.93106
   A15        1.95442  -0.00568   0.00000  -0.05582  -0.05643   1.89799
   A16        1.80851   0.00462   0.00000   0.06455   0.06415   1.87266
   A17        1.91489   0.00238   0.00000   0.01560   0.01558   1.93046
   A18        1.92711   0.00011   0.00000  -0.01951  -0.02133   1.90578
   A19        1.91986   0.00059   0.00000   0.00347   0.00347   1.92333
   A20        1.97203  -0.00466   0.00000  -0.02723  -0.02723   1.94481
    D1       -1.17822  -0.00138   0.00000  -0.06011  -0.06092  -1.23915
    D2        2.95819  -0.00557   0.00000  -0.10674  -0.10732   2.85087
    D3        0.91435  -0.00218   0.00000  -0.06640  -0.06727   0.84708
    D4        0.90994   0.00378   0.00000   0.04305   0.04374   0.95368
    D5       -1.23683  -0.00042   0.00000  -0.00358  -0.00266  -1.23949
    D6        3.00252   0.00297   0.00000   0.03676   0.03739   3.03991
    D7       -0.00404  -0.00005   0.00000  -0.04017  -0.04046  -0.04450
    D8        3.12875   0.00004   0.00000  -0.03656  -0.03690   3.09185
    D9        2.13290  -0.00102   0.00000  -0.02203  -0.02173   2.11117
   D10       -1.01750  -0.00092   0.00000  -0.01842  -0.01816  -1.03567
   D11       -2.10201  -0.00036   0.00000  -0.02848  -0.02843  -2.13044
   D12        1.03078  -0.00026   0.00000  -0.02487  -0.02487   1.00591
   D13       -1.23838   0.00447   0.00000   0.13131   0.13114  -1.10724
   D14        3.05582  -0.00083   0.00000   0.05004   0.05032   3.10614
   D15        0.89151   0.00427   0.00000   0.12215   0.12158   1.01309
   D16        2.87467   0.00213   0.00000   0.09388   0.09387   2.96854
   D17        0.88569  -0.00317   0.00000   0.01262   0.01305   0.89874
   D18       -1.27863   0.00194   0.00000   0.08473   0.08431  -1.19432
   D19        0.81894   0.00194   0.00000   0.09321   0.09336   0.91230
   D20       -1.17004  -0.00336   0.00000   0.01195   0.01254  -1.15750
   D21        2.94883   0.00174   0.00000   0.08406   0.08380   3.03263
   D22       -3.12908   0.00015   0.00000   0.00265   0.00257  -3.12651
   D23        0.00451   0.00010   0.00000   0.00542   0.00550   0.01000
   D24        0.99133  -0.00237   0.00000  -0.03973  -0.04037   0.95095
   D25        3.06325  -0.00111   0.00000  -0.00744  -0.00716   3.05609
   D26       -1.16201   0.00259   0.00000   0.01165   0.01202  -1.14999
         Item               Value     Threshold  Converged?
 Maximum Force            0.042767     0.002500     NO 
 RMS     Force            0.008128     0.001667     NO 
 Maximum Displacement     0.216378     0.010000     NO 
 RMS     Displacement     0.065373     0.006667     NO 
 Predicted change in Energy=-6.261290D-03
 GradGradGradGradGradGradGradGradGradGradGradGradGradGradGradGradGradGrad

                          Input orientation:                          
 ---------------------------------------------------------------------
 Center     Atomic      Atomic             Coordinates (Angstroms)
 Number     Number       Type             X           Y           Z
 ---------------------------------------------------------------------
      1          7           0        0.406196   -1.086506    0.849558
      2          6           0        0.096294   -0.184378   -0.268232
      3          6           0        0.713737    1.203731   -0.126353
      4          8           0        1.375380    1.602859    0.830330
      5          6           0       -1.435226   -0.129844   -0.437249
      6          8           0       -1.948834   -1.435016   -0.798770
      7          8           0        0.440118    1.982782   -1.235317
      8          1           0        1.375876   -1.398820    0.873927
      9          1           0        0.154108   -0.696754    1.758752
     10          1           0        0.493371   -0.636544   -1.184028
     11          1           0       -1.709235    0.558724   -1.235992
     12          1           0       -1.883066    0.214623    0.506695
     13          1           0       -1.658423   -2.106783   -0.144298
     14          1           0        0.846305    2.873926   -1.157023
 ---------------------------------------------------------------------
                    Distance matrix (angstroms):
                    1          2          3          4          5
     1  N    0.000000
     2  C    1.469465   0.000000
     3  C    2.508420   1.525849   0.000000
     4  O    2.858735   2.457054   1.229763   0.000000
     5  C    2.441702   1.541782   2.548160   3.536738   0.000000
     6  O    2.895619   2.455221   3.808466   4.788846   1.448435
     7  O    3.710577   2.397926   1.382602   2.299120   2.935475
     8  H    1.019026   2.101601   2.865704   3.001995   3.351384
     9  H    1.020827   2.091538   2.734712   2.764361   2.769438
    10  H    2.084595   1.095813   2.133975   3.138551   2.129297
    11  H    3.395784   2.179150   2.741921   3.856780   1.089586
    12  H    2.655411   2.162771   2.849995   3.556600   1.100113
    13  H    2.508259   2.605768   4.072710   4.890327   2.010951
    14  H    4.461511   3.271955   1.967080   2.417665   3.840064
                    6          7          8          9         10
     6  O    0.000000
     7  O    4.192732   0.000000
     8  H    3.721951   4.093871   0.000000
     9  H    3.392390   4.028171   1.663889   0.000000
    10  H    2.598142   2.620369   2.365388   2.962883   0.000000
    11  H    2.055132   2.578306   4.219200   3.743897   2.506559
    12  H    2.104726   3.399732   3.654963   2.558971   3.038170
    13  H    0.981807   4.724271   3.277951   2.982456   2.805861
    14  H    5.148604   0.982474   4.760416   4.661613   3.528270
                   11         12         13         14
    11  H    0.000000
    12  H    1.784820   0.000000
    13  H    2.880851   2.421401   0.000000
    14  H    3.449229   4.158042   5.666280   0.000000
 Stoichiometry    C3H7NO3
 Framework group  C1[X(C3H7NO3)]
 Deg. of freedom    36
 Full point group                 C1      NOp   1
 Largest Abelian subgroup         C1      NOp   1
 Largest concise Abelian subgroup C1      NOp   1
                         Standard orientation:                         
 ---------------------------------------------------------------------
 Center     Atomic      Atomic             Coordinates (Angstroms)
 Number     Number       Type             X           Y           Z
 ---------------------------------------------------------------------
      1          7           0        0.636918    1.613165   -0.173974
      2          6           0        0.225116    0.214762   -0.358950
      3          6           0       -1.242458   -0.041897   -0.029460
      4          8           0       -2.040008    0.790069    0.399566
      5          6           0        1.174884   -0.682830    0.459195
      6          8           0        2.528407   -0.575509   -0.045206
      7          8           0       -1.583887   -1.357438   -0.283167
      8          1           0        0.254160    2.253547   -0.868108
      9          1           0        0.434251    1.968584    0.761275
     10          1           0        0.383321   -0.044898   -1.411734
     11          1           0        0.880605   -1.728715    0.377206
     12          1           0        1.129549   -0.376038    1.514692
     13          1           0        2.809736    0.364948   -0.063628
     14          1           0       -2.531390   -1.526770   -0.086138
 ---------------------------------------------------------------------
 Rotational constants (GHZ):      4.3531904      1.7960083      1.3690078
 Standard basis: 6-31+G (6D, 7F)
 There are   105 symmetry adapted basis functions of A   symmetry.
 Integral buffers will be    131072 words long.
 Raffenetti 2 integral format.
 Two-electron integral symmetry is turned on.
   105 basis functions,   210 primitive gaussians,   105 cartesian basis functions
    28 alpha electrons       28 beta electrons
       nuclear repulsion energy       317.2091596499 Hartrees.
 NAtoms=   14 NActive=   14 NUniq=   14 SFac= 1.00D+00 NAtFMM=   50 NAOKFM=F Big=F
 One-electron integrals computed using PRISM.
 NBasis=   105 RedAO= T  NBF=   105
 NBsUse=   105 1.00D-06 NBFU=   105
 Initial guess read from the read-write file.
 B after Tr=     0.000000    0.000000    0.000000
         Rot=    1.000000    0.000000    0.000000    0.000000 Ang=   0.00 deg.
 Initial guess orbital symmetries:
       Occupied  (A) (A) (A) (A) (A) (A) (A) (A) (A) (A) (A) (A)
                 (A) (A) (A) (A) (A) (A) (A) (A) (A) (A) (A) (A)
                 (A) (A) (A) (A)
       Virtual   (A) (A) (A) (A) (A) (A) (A) (A) (A) (A) (A) (A)
                 (A) (A) (A) (A) (A) (A) (A) (A) (A) (A) (A) (A)
                 (A) (A) (A) (A) (A) (A) (A) (A) (A) (A) (A) (A)
                 (A) (A) (A) (A) (A) (A) (A) (A) (A) (A) (A) (A)
                 (A) (A) (A) (A) (A) (A) (A) (A) (A) (A) (A) (A)
                 (A) (A) (A) (A) (A) (A) (A) (A) (A) (A) (A) (A)
                 (A) (A) (A) (A) (A)
 Harris functional with IExCor=  402 diagonalized for initial guess.
 ExpMin= 4.38D-02 ExpMax= 5.48D+03 ExpMxC= 8.25D+02 IAcc=2 IRadAn=         1 AccDes= 0.00D+00
 HarFok:  IExCor=  402 AccDes= 0.00D+00 IRadAn=         1 IDoV= 1
 ScaDFX=  1.000000  1.000000  1.000000  1.000000
 FoFCou: FMM=F IPFlag=           0 FMFlag=      100000 FMFlg1=           0
         NFxFlg=           0 DoJE=T BraDBF=F KetDBF=T FulRan=T
         Omega=  0.000000  0.000000  1.000000  0.000000  0.000000 ICntrl=     500 IOpCl=  0
         NMat0=    1 NMatS0=    1 NMatT0=    0 NMatD0=    1 NMtDS0=    0 NMtDT0=    0
         I1Cent=           4 NGrid=           0.
 Petite list used in FoFCou.
 Requested convergence on RMS density matrix=1.00D-08 within 128 cycles.
 Requested convergence on MAX density matrix=1.00D-06.
 Requested convergence on             energy=1.00D-06.
 No special actions if energy rises.
 Keep R1 ints in memory in canonical form, NReq=16514873.
 SCF Done:  E(RB3LYP) =  -398.844099134     A.U. after   13 cycles
             Convg  =    0.2698D-08             -V/T =  2.0060
 Calling FoFJK, ICntrl=      2127 FMM=F ISym2X=0 I1Cent= 0 IOpClX= 0 NMat=1 NMatS=1 NMatT=0.
 ***** Axes restored to original set *****
 -------------------------------------------------------------------
 Center     Atomic                   Forces (Hartrees/Bohr)
 Number     Number              X              Y              Z
 -------------------------------------------------------------------
      1        7           0.003203476    0.005347060    0.000619483
      2        6           0.002111037   -0.005752071    0.003402146
      3        6          -0.005688944   -0.005768398   -0.004796591
      4        8           0.002193285    0.003397576    0.002477324
      5        6           0.000673344    0.001145052    0.002344552
      6        8          -0.001776433    0.001090881   -0.001246166
      7        8           0.002064848    0.001124544    0.002693620
      8        1          -0.003163109   -0.001215142   -0.001250634
      9        1          -0.000055601   -0.001147014   -0.001809681
     10        1           0.001151986    0.001123164   -0.001039578
     11        1          -0.001342006   -0.002496844   -0.000962231
     12        1          -0.001486039    0.000594664   -0.000206648
     13        1           0.002308077    0.002544535    0.000095345
     14        1          -0.000193923    0.000011992   -0.000320940
 -------------------------------------------------------------------
 Cartesian Forces:  Max     0.005768398 RMS     0.002536691

 GradGradGradGradGradGradGradGradGradGradGradGradGradGradGradGradGradGrad
 Berny optimization.
 Using GEDIIS/GDIIS optimizer.
 Internal  Forces:  Max     0.005530299 RMS     0.001610288
 Search for a local minimum.
 Step number   2 out of a maximum of   69
 All quantities printed in internal units (Hartrees-Bohrs-Radians)
 Mixed Optimization -- RFO/linear search
 Update second derivatives using D2CorX and points    1    2
 DE= -5.48D-03 DEPred=-6.26D-03 R= 8.76D-01
 SS=  1.41D+00  RLast= 3.59D-01 DXNew= 5.0454D-01 1.0758D+00
 Trust test= 8.76D-01 RLast= 3.59D-01 DXMaxT set to 5.05D-01
 ITU=  1  0
 Use linear search instead of GDIIS.
     Eigenvalues ---    0.00242   0.00403   0.00672   0.00804   0.01384
     Eigenvalues ---    0.02088   0.03189   0.04173   0.05131   0.05398
     Eigenvalues ---    0.05991   0.06264   0.11714   0.13750   0.15718
     Eigenvalues ---    0.16000   0.16000   0.16318   0.17348   0.19244
     Eigenvalues ---    0.22047   0.24696   0.26067   0.27787   0.29481
     Eigenvalues ---    0.30817   0.32346   0.33217   0.34859   0.42873
     Eigenvalues ---    0.44597   0.45151   0.48099   0.49630   0.51359
     Eigenvalues ---    0.95989
 RFO step:  Lambda=-1.50332373D-03 EMin= 2.41895324D-03
 Quartic linear search produced a step of -0.00993.
 Iteration  1 RMS(Cart)=  0.07010604 RMS(Int)=  0.00255207
 Iteration  2 RMS(Cart)=  0.00283001 RMS(Int)=  0.00012330
 Iteration  3 RMS(Cart)=  0.00000333 RMS(Int)=  0.00012323
 Iteration  4 RMS(Cart)=  0.00000000 RMS(Int)=  0.00012323
 Variable       Old X    -DE/DX   Delta X   Delta X   Delta X     New X
                                 (Linear)    (Quad)   (Total)
    R1        2.77689  -0.00369   0.00014  -0.01095  -0.01081   2.76607
    R2        1.92568  -0.00267  -0.00002  -0.00572  -0.00574   1.91994
    R3        1.92908  -0.00203  -0.00004  -0.00425  -0.00429   1.92479
    R4        2.88344  -0.00178   0.00003  -0.00601  -0.00598   2.87745
    R5        2.91355   0.00171   0.00016   0.00524   0.00540   2.91895
    R6        2.07079   0.00082   0.00064  -0.00044   0.00020   2.07099
    R7        2.32391   0.00420  -0.00042   0.00603   0.00562   2.32953
    R8        2.61274  -0.00162  -0.00024  -0.00198  -0.00221   2.61053
    R9        2.73715  -0.00318  -0.00048  -0.00508  -0.00556   2.73158
   R10        2.05902  -0.00054   0.00038  -0.00341  -0.00303   2.05599
   R11        2.07891   0.00061   0.00008   0.00141   0.00149   2.08041
   R12        1.85535  -0.00099   0.00013  -0.00254  -0.00241   1.85294
   R13        1.85661  -0.00010   0.00027  -0.00150  -0.00122   1.85538
    A1        1.98999   0.00071  -0.00048   0.01608   0.01521   2.00521
    A2        1.97254   0.00048  -0.00026   0.01375   0.01310   1.98564
    A3        1.90784   0.00042  -0.00036   0.01970   0.01874   1.92659
    A4        1.98496  -0.00004  -0.00020  -0.00190  -0.00210   1.98287
    A5        1.89083   0.00064   0.00017   0.00161   0.00177   1.89259
    A6        1.88176   0.00003   0.00016   0.00451   0.00466   1.88642
    A7        1.96057  -0.00100  -0.00035  -0.00612  -0.00647   1.95410
    A8        1.88227  -0.00002   0.00006  -0.00290  -0.00282   1.87945
    A9        1.85764   0.00045   0.00019   0.00574   0.00591   1.86355
   A10        2.19606   0.00118   0.00048   0.00230   0.00277   2.19883
   A11        1.93686   0.00267  -0.00005   0.01062   0.01056   1.94742
   A12        2.15026  -0.00384  -0.00043  -0.01288  -0.01333   2.13693
   A13        1.92594  -0.00241  -0.00012  -0.01236  -0.01244   1.91350
   A14        1.93106   0.00250   0.00008   0.01610   0.01606   1.94712
   A15        1.89799   0.00145   0.00056   0.01083   0.01130   1.90929
   A16        1.87266  -0.00121  -0.00064  -0.01615  -0.01672   1.85595
   A17        1.93046   0.00035  -0.00015  -0.00039  -0.00050   1.92997
   A18        1.90578  -0.00068   0.00021   0.00190   0.00191   1.90769
   A19        1.92333  -0.00553  -0.00003  -0.03336  -0.03339   1.88993
   A20        1.94481   0.00070   0.00027   0.00293   0.00320   1.94800
    D1       -1.23915  -0.00159   0.00060  -0.09108  -0.09061  -1.32976
    D2        2.85087  -0.00074   0.00107  -0.08294  -0.08201   2.76886
    D3        0.84708  -0.00161   0.00067  -0.09279  -0.09226   0.75482
    D4        0.95368   0.00001  -0.00043  -0.03860  -0.03889   0.91479
    D5       -1.23949   0.00086   0.00003  -0.03046  -0.03029  -1.26978
    D6        3.03991  -0.00002  -0.00037  -0.04030  -0.04054   2.99937
    D7       -0.04450  -0.00024   0.00040  -0.03717  -0.03679  -0.08129
    D8        3.09185  -0.00015   0.00037  -0.02772  -0.02735   3.06450
    D9        2.11117  -0.00021   0.00022  -0.04138  -0.04118   2.06999
   D10       -1.03567  -0.00012   0.00018  -0.03193  -0.03174  -1.06740
   D11       -2.13044  -0.00024   0.00028  -0.03967  -0.03940  -2.16983
   D12        1.00591  -0.00015   0.00025  -0.03022  -0.02995   0.97596
   D13       -1.10724  -0.00033  -0.00130   0.09971   0.09839  -1.00886
   D14        3.10614   0.00113  -0.00050   0.11741   0.11699  -3.06005
   D15        1.01309  -0.00047  -0.00121   0.09846   0.09718   1.11026
   D16        2.96854  -0.00004  -0.00093   0.10533   0.10438   3.07291
   D17        0.89874   0.00142  -0.00013   0.12303   0.12299   1.02172
   D18       -1.19432  -0.00018  -0.00084   0.10408   0.10317  -1.09115
   D19        0.91230   0.00025  -0.00093   0.10865   0.10772   1.02002
   D20       -1.15750   0.00171  -0.00012   0.12636   0.12633  -1.03117
   D21        3.03263   0.00011  -0.00083   0.10740   0.10651   3.13914
   D22       -3.12651  -0.00006  -0.00003  -0.00499  -0.00498  -3.13148
   D23        0.01000   0.00004  -0.00005   0.00422   0.00413   0.01413
   D24        0.95095  -0.00095   0.00040  -0.05135  -0.05101   0.89995
   D25        3.05609  -0.00007   0.00007  -0.04890  -0.04876   3.00733
   D26       -1.14999  -0.00142  -0.00012  -0.05656  -0.05669  -1.20668
         Item               Value     Threshold  Converged?
 Maximum Force            0.005530     0.002500     NO 
 RMS     Force            0.001610     0.001667     YES
 Maximum Displacement     0.243315     0.010000     NO 
 RMS     Displacement     0.069794     0.006667     NO 
 Predicted change in Energy=-8.735262D-04
 GradGradGradGradGradGradGradGradGradGradGradGradGradGradGradGradGradGrad

                          Input orientation:                          
 ---------------------------------------------------------------------
 Center     Atomic      Atomic             Coordinates (Angstroms)
 Number     Number       Type             X           Y           Z
 ---------------------------------------------------------------------
      1          7           0        0.402820   -1.095952    0.815274
      2          6           0        0.095119   -0.181785   -0.285708
      3          6           0        0.698319    1.205627   -0.113074
      4          8           0        1.318645    1.608117    0.873248
      5          6           0       -1.438547   -0.127154   -0.461212
      6          8           0       -1.946345   -1.456933   -0.712758
      7          8           0        0.465617    2.001849   -1.217714
      8          1           0        1.346603   -1.472051    0.807718
      9          1           0        0.177599   -0.721166    1.735200
     10          1           0        0.503923   -0.610140   -1.207897
     11          1           0       -1.721331    0.476207   -1.321264
     12          1           0       -1.895523    0.296290    0.446453
     13          1           0       -1.602522   -2.054524   -0.015541
     14          1           0        0.862223    2.893612   -1.110726
 ---------------------------------------------------------------------
                    Distance matrix (angstroms):
                    1          2          3          4          5
     1  N    0.000000
     2  C    1.463742   0.000000
     3  C    2.499283   1.522683   0.000000
     4  O    2.855536   2.458443   1.232735   0.000000
     5  C    2.441027   1.544642   2.542381   3.520520   0.000000
     6  O    2.825556   2.444576   3.800407   4.750801   1.445492
     7  O    3.705854   2.402949   1.381430   2.292336   2.954791
     8  H    1.015989   2.103943   2.904839   3.080992   3.343051
     9  H    1.018554   2.093275   2.720256   2.733223   2.790878
    10  H    2.083136   1.095920   2.129187   3.148905   2.136352
    11  H    3.398307   2.191990   2.801157   3.916447   1.087980
    12  H    2.712332   2.174229   2.804991   3.497702   1.100903
    13  H    2.372869   2.542072   3.991486   4.768449   1.985010
    14  H    4.453891   3.275236   1.967605   2.407690   3.852329
                    6          7          8          9         10
     6  O    0.000000
     7  O    4.246848   0.000000
     8  H    3.627063   4.116612   0.000000
     9  H    3.323401   4.027092   1.670515   0.000000
    10  H    2.639325   2.612289   2.348554   2.963213   0.000000
    11  H    2.039103   2.668529   4.211946   3.792309   2.478862
    12  H    2.102414   3.354604   3.710649   2.644602   3.052184
    13  H    0.980531   4.709202   3.116788   2.830506   2.818700
    14  H    5.193619   0.981827   4.793127   4.651303   3.523365
                   11         12         13         14
    11  H    0.000000
    12  H    1.785367   0.000000
    13  H    2.850198   2.413631   0.000000
    14  H    3.544421   4.095857   5.635463   0.000000
 Stoichiometry    C3H7NO3
 Framework group  C1[X(C3H7NO3)]
 Deg. of freedom    36
 Full point group                 C1      NOp   1
 Largest Abelian subgroup         C1      NOp   1
 Largest concise Abelian subgroup C1      NOp   1
                         Standard orientation:                         
 ---------------------------------------------------------------------
 Center     Atomic      Atomic             Coordinates (Angstroms)
 Number     Number       Type             X           Y           Z
 ---------------------------------------------------------------------
      1          7           0        0.679230    1.572455   -0.198915
      2          6           0        0.227494    0.191817   -0.378676
      3          6           0       -1.238475   -0.020969   -0.026230
      4          8           0       -1.998497    0.823761    0.451716
      5          6           0        1.157504   -0.736172    0.433628
      6          8           0        2.523544   -0.559338   -0.004676
      7          8           0       -1.645452   -1.311695   -0.303262
      8          1           0        0.379709    2.218187   -0.923864
      9          1           0        0.475050    1.954470    0.722946
     10          1           0        0.358247   -0.074251   -1.433737
     11          1           0        0.917237   -1.784768    0.271085
     12          1           0        1.061641   -0.502739    1.505219
     13          1           0        2.730673    0.398905    0.012910
     14          1           0       -2.593054   -1.446860   -0.084713
 ---------------------------------------------------------------------
 Rotational constants (GHZ):      4.4149787      1.7891276      1.3777097
 Standard basis: 6-31+G (6D, 7F)
 There are   105 symmetry adapted basis functions of A   symmetry.
 Integral buffers will be    131072 words long.
 Raffenetti 2 integral format.
 Two-electron integral symmetry is turned on.
   105 basis functions,   210 primitive gaussians,   105 cartesian basis functions
    28 alpha electrons       28 beta electrons
       nuclear repulsion energy       317.7357397811 Hartrees.
 NAtoms=   14 NActive=   14 NUniq=   14 SFac= 1.00D+00 NAtFMM=   50 NAOKFM=F Big=F
 One-electron integrals computed using PRISM.
 NBasis=   105 RedAO= T  NBF=   105
 NBsUse=   105 1.00D-06 NBFU=   105
 Initial guess read from the read-write file.
 B after Tr=     0.000000    0.000000    0.000000
         Rot=    1.000000    0.000000    0.000000    0.000000 Ang=   0.00 deg.
 Initial guess orbital symmetries:
       Occupied  (A) (A) (A) (A) (A) (A) (A) (A) (A) (A) (A) (A)
                 (A) (A) (A) (A) (A) (A) (A) (A) (A) (A) (A) (A)
                 (A) (A) (A) (A)
       Virtual   (A) (A) (A) (A) (A) (A) (A) (A) (A) (A) (A) (A)
                 (A) (A) (A) (A) (A) (A) (A) (A) (A) (A) (A) (A)
                 (A) (A) (A) (A) (A) (A) (A) (A) (A) (A) (A) (A)
                 (A) (A) (A) (A) (A) (A) (A) (A) (A) (A) (A) (A)
                 (A) (A) (A) (A) (A) (A) (A) (A) (A) (A) (A) (A)
                 (A) (A) (A) (A) (A) (A) (A) (A) (A) (A) (A) (A)
                 (A) (A) (A) (A) (A)
 Harris functional with IExCor=  402 diagonalized for initial guess.
 ExpMin= 4.38D-02 ExpMax= 5.48D+03 ExpMxC= 8.25D+02 IAcc=2 IRadAn=         1 AccDes= 0.00D+00
 HarFok:  IExCor=  402 AccDes= 0.00D+00 IRadAn=         1 IDoV= 1
 ScaDFX=  1.000000  1.000000  1.000000  1.000000
 FoFCou: FMM=F IPFlag=           0 FMFlag=      100000 FMFlg1=           0
         NFxFlg=           0 DoJE=T BraDBF=F KetDBF=T FulRan=T
         Omega=  0.000000  0.000000  1.000000  0.000000  0.000000 ICntrl=     500 IOpCl=  0
         NMat0=    1 NMatS0=    1 NMatT0=    0 NMatD0=    1 NMtDS0=    0 NMtDT0=    0
         I1Cent=           4 NGrid=           0.
 Petite list used in FoFCou.
 Requested convergence on RMS density matrix=1.00D-08 within 128 cycles.
 Requested convergence on MAX density matrix=1.00D-06.
 Requested convergence on             energy=1.00D-06.
 No special actions if energy rises.
 Keep R1 ints in memory in canonical form, NReq=16514873.
 SCF Done:  E(RB3LYP) =  -398.845052920     A.U. after   12 cycles
             Convg  =    0.4671D-08             -V/T =  2.0059
 Calling FoFJK, ICntrl=      2127 FMM=F ISym2X=0 I1Cent= 0 IOpClX= 0 NMat=1 NMatS=1 NMatT=0.
 ***** Axes restored to original set *****
 -------------------------------------------------------------------
 Center     Atomic                   Forces (Hartrees/Bohr)
 Number     Number              X              Y              Z
 -------------------------------------------------------------------
      1        7           0.000652399    0.002738361    0.001476260
      2        6           0.002270740   -0.002620446    0.000769686
      3        6          -0.001877593   -0.000311822   -0.001307394
      4        8           0.000469197    0.000727910    0.000963870
      5        6          -0.001133436    0.000771597    0.000788704
      6        8          -0.002371510    0.000470217   -0.000396791
      7        8           0.000209758   -0.001234975    0.000608116
      8        1          -0.001776893   -0.000583618   -0.000814379
      9        1           0.000726586   -0.000120356   -0.001063293
     10        1           0.000426769    0.000291204   -0.000554237
     11        1           0.000485711    0.000716910   -0.000619295
     12        1          -0.000458614    0.000522375   -0.000331194
     13        1           0.002367197   -0.001514276    0.000153682
     14        1           0.000009691    0.000146919    0.000326265
 -------------------------------------------------------------------
 Cartesian Forces:  Max     0.002738361 RMS     0.001158371

 GradGradGradGradGradGradGradGradGradGradGradGradGradGradGradGradGradGrad
 Berny optimization.
 Using GEDIIS/GDIIS optimizer.
 Internal  Forces:  Max     0.001857320 RMS     0.000724212
 Search for a local minimum.
 Step number   3 out of a maximum of   69
 All quantities printed in internal units (Hartrees-Bohrs-Radians)
 Mixed Optimization -- En-DIIS/RFO-DIIS
 Update second derivatives using D2CorX and points    2    3
 DE= -9.54D-04 DEPred=-8.74D-04 R= 1.09D+00
 SS=  1.41D+00  RLast= 3.93D-01 DXNew= 8.4853D-01 1.1804D+00
 Trust test= 1.09D+00 RLast= 3.93D-01 DXMaxT set to 8.49D-01
 ITU=  1  1  0
 Use linear search instead of GDIIS.
     Eigenvalues ---    0.00329   0.00385   0.00516   0.00797   0.01176
     Eigenvalues ---    0.02089   0.02932   0.04254   0.05173   0.05384
     Eigenvalues ---    0.05956   0.06253   0.11941   0.13748   0.15655
     Eigenvalues ---    0.15999   0.16033   0.16836   0.17290   0.19069
     Eigenvalues ---    0.21604   0.24900   0.26298   0.27537   0.29383
     Eigenvalues ---    0.30660   0.32443   0.33211   0.34166   0.43696
     Eigenvalues ---    0.44489   0.44629   0.48068   0.50546   0.51013
     Eigenvalues ---    0.95502
 RFO step:  Lambda=-1.20653929D-03 EMin= 3.29146253D-03
 Quartic linear search produced a step of  0.36381.
 Iteration  1 RMS(Cart)=  0.06206959 RMS(Int)=  0.00456030
 Iteration  2 RMS(Cart)=  0.00435512 RMS(Int)=  0.00025387
 Iteration  3 RMS(Cart)=  0.00002402 RMS(Int)=  0.00025316
 Iteration  4 RMS(Cart)=  0.00000002 RMS(Int)=  0.00025316
 Variable       Old X    -DE/DX   Delta X   Delta X   Delta X     New X
                                 (Linear)    (Quad)   (Total)
    R1        2.76607  -0.00166  -0.00393  -0.01257  -0.01651   2.74957
    R2        1.91994  -0.00142  -0.00209  -0.00686  -0.00895   1.91100
    R3        1.92479  -0.00118  -0.00156  -0.00532  -0.00688   1.91791
    R4        2.87745  -0.00102  -0.00218  -0.00769  -0.00986   2.86759
    R5        2.91895   0.00121   0.00197   0.00723   0.00919   2.92814
    R6        2.07099   0.00051   0.00007  -0.00224  -0.00217   2.06882
    R7        2.32953   0.00124   0.00204   0.00736   0.00940   2.33893
    R8        2.61053  -0.00142  -0.00081  -0.00307  -0.00387   2.60665
    R9        2.73158   0.00099  -0.00202   0.00370   0.00168   2.73326
   R10        2.05599   0.00076  -0.00110  -0.00117  -0.00227   2.05371
   R11        2.08041   0.00013   0.00054   0.00068   0.00122   2.08163
   R12        1.85294   0.00186  -0.00088   0.00276   0.00189   1.85482
   R13        1.85538   0.00017  -0.00045  -0.00206  -0.00250   1.85288
    A1        2.00521   0.00009   0.00553   0.01441   0.01906   2.02426
    A2        1.98564  -0.00003   0.00477   0.01082   0.01470   2.00034
    A3        1.92659   0.00025   0.00682   0.01830   0.02385   1.95043
    A4        1.98287  -0.00021  -0.00076  -0.00500  -0.00583   1.97703
    A5        1.89259   0.00051   0.00064  -0.00032   0.00019   1.89278
    A6        1.88642   0.00024   0.00169   0.01204   0.01371   1.90012
    A7        1.95410  -0.00086  -0.00235  -0.01171  -0.01411   1.93998
    A8        1.87945   0.00029  -0.00103   0.00190   0.00092   1.88037
    A9        1.86355   0.00007   0.00215   0.00461   0.00672   1.87027
   A10        2.19883   0.00052   0.00101   0.00067   0.00163   2.20045
   A11        1.94742  -0.00040   0.00384   0.00351   0.00730   1.95472
   A12        2.13693  -0.00012  -0.00485  -0.00423  -0.00913   2.12780
   A13        1.91350  -0.00128  -0.00452  -0.01237  -0.01685   1.89665
   A14        1.94712   0.00004   0.00584   0.00512   0.01084   1.95796
   A15        1.90929   0.00025   0.00411   0.00287   0.00693   1.91622
   A16        1.85595   0.00056  -0.00608  -0.00028  -0.00630   1.84965
   A17        1.92997   0.00068  -0.00018   0.00787   0.00775   1.93772
   A18        1.90769  -0.00024   0.00069  -0.00315  -0.00260   1.90509
   A19        1.88993  -0.00010  -0.01215  -0.01713  -0.02928   1.86065
   A20        1.94800  -0.00049   0.00116  -0.00431  -0.00315   1.94486
    D1       -1.32976  -0.00123  -0.03297  -0.15588  -0.18912  -1.51888
    D2        2.76886  -0.00035  -0.02984  -0.13677  -0.16686   2.60200
    D3        0.75482  -0.00083  -0.03357  -0.14834  -0.18220   0.57263
    D4        0.91479  -0.00081  -0.01415  -0.10575  -0.11963   0.79515
    D5       -1.26978   0.00007  -0.01102  -0.08665  -0.09737  -1.36715
    D6        2.99937  -0.00041  -0.01475  -0.09821  -0.11271   2.88666
    D7       -0.08129   0.00001  -0.01338  -0.04206  -0.05550  -0.13679
    D8        3.06450   0.00009  -0.00995  -0.02745  -0.03742   3.02708
    D9        2.06999  -0.00015  -0.01498  -0.05554  -0.07051   1.99948
   D10       -1.06740  -0.00007  -0.01155  -0.04093  -0.05243  -1.11983
   D11       -2.16983  -0.00036  -0.01433  -0.05537  -0.06971  -2.23954
   D12        0.97596  -0.00028  -0.01090  -0.04076  -0.05163   0.92433
   D13       -1.00886  -0.00060   0.03579  -0.04434  -0.00856  -1.01742
   D14       -3.06005  -0.00052   0.04256  -0.03930   0.00334  -3.05671
   D15        1.11026  -0.00041   0.03535  -0.04060  -0.00530   1.10496
   D16        3.07291  -0.00011   0.03797  -0.02938   0.00855   3.08147
   D17        1.02172  -0.00002   0.04474  -0.02434   0.02045   1.04217
   D18       -1.09115   0.00008   0.03753  -0.02564   0.01182  -1.07934
   D19        1.02002  -0.00003   0.03919  -0.02806   0.01113   1.03116
   D20       -1.03117   0.00005   0.04596  -0.02301   0.02303  -1.00814
   D21        3.13914   0.00016   0.03875  -0.02432   0.01440  -3.12965
   D22       -3.13148  -0.00018  -0.00181  -0.01573  -0.01749   3.13422
   D23        0.01413  -0.00011   0.00150  -0.00174  -0.00030   0.01384
   D24        0.89995  -0.00115  -0.01856  -0.12926  -0.14790   0.75205
   D25        3.00733  -0.00148  -0.01774  -0.13014  -0.14779   2.85954
   D26       -1.20668  -0.00107  -0.02062  -0.12983  -0.15045  -1.35713
         Item               Value     Threshold  Converged?
 Maximum Force            0.001857     0.002500     YES
 RMS     Force            0.000724     0.001667     YES
 Maximum Displacement     0.232954     0.010000     NO 
 RMS     Displacement     0.062042     0.006667     NO 
 Predicted change in Energy=-7.769291D-04
 GradGradGradGradGradGradGradGradGradGradGradGradGradGradGradGradGradGrad

                          Input orientation:                          
 ---------------------------------------------------------------------
 Center     Atomic      Atomic             Coordinates (Angstroms)
 Number     Number       Type             X           Y           Z
 ---------------------------------------------------------------------
      1          7           0        0.389189   -1.075840    0.828089
      2          6           0        0.087034   -0.182510   -0.279933
      3          6           0        0.679356    1.204298   -0.110774
      4          8           0        1.240773    1.638329    0.903303
      5          6           0       -1.451590   -0.116325   -0.450887
      6          8           0       -1.948978   -1.453518   -0.688662
      7          8           0        0.502047    1.982582   -1.235732
      8          1           0        1.260866   -1.584249    0.762235
      9          1           0        0.261008   -0.666655    1.747972
     10          1           0        0.496253   -0.609889   -1.201028
     11          1           0       -1.743226    0.469954   -1.318246
     12          1           0       -1.908624    0.320737    0.451061
     13          1           0       -1.479248   -2.043408   -0.060342
     14          1           0        0.881740    2.878492   -1.115057
 ---------------------------------------------------------------------
                    Distance matrix (angstroms):
                    1          2          3          4          5
     1  N    0.000000
     2  C    1.455008   0.000000
     3  C    2.482879   1.517464   0.000000
     4  O    2.845621   2.458986   1.237709   0.000000
     5  C    2.438220   1.549506   2.529951   3.487328   0.000000
     6  O    2.812508   2.434721   3.782338   4.718938   1.446381
     7  O    3.691346   2.402792   1.379381   2.289038   2.972893
     8  H    1.011255   2.104488   2.979311   3.225726   3.314194
     9  H    1.014913   2.092143   2.670284   2.643171   2.840922
    10  H    2.084679   1.094774   2.124489   3.168123   2.144857
    11  H    3.397562   2.203101   2.804666   3.899311   1.086778
    12  H    2.715239   2.184092   2.791770   3.443729   1.101551
    13  H    2.283978   2.442212   3.899962   4.677853   1.966453
    14  H    4.433414   3.270890   1.962770   2.395973   3.854151
                    6          7          8          9         10
     6  O    0.000000
     7  O    4.256007   0.000000
     8  H    3.524953   4.158120   0.000000
     9  H    3.382363   3.997380   1.677311   0.000000
    10  H    2.636927   2.592710   2.321296   2.958913   0.000000
    11  H    2.034319   2.708525   4.191983   3.835431   2.488989
    12  H    2.109166   3.379103   3.710993   2.713711   3.062499
    13  H    0.981531   4.638498   2.897531   2.862506   2.694206
    14  H    5.192406   0.980501   4.856338   4.598946   3.510668
                   11         12         13         14
    11  H    0.000000
    12  H    1.783275   0.000000
    13  H    2.822940   2.456640   0.000000
    14  H    3.568303   4.096457   5.559836   0.000000
 Stoichiometry    C3H7NO3
 Framework group  C1[X(C3H7NO3)]
 Deg. of freedom    36
 Full point group                 C1      NOp   1
 Largest Abelian subgroup         C1      NOp   1
 Largest concise Abelian subgroup C1      NOp   1
                         Standard orientation:                         
 ---------------------------------------------------------------------
 Center     Atomic      Atomic             Coordinates (Angstroms)
 Number     Number       Type             X           Y           Z
 ---------------------------------------------------------------------
      1          7           0        0.684924    1.557468   -0.212039
      2          6           0        0.233498    0.185268   -0.386194
      3          6           0       -1.228279   -0.014694   -0.031340
      4          8           0       -1.971231    0.822605    0.496747
      5          6           0        1.145348   -0.741615    0.456650
      6          8           0        2.513144   -0.567149    0.019943
      7          8           0       -1.666199   -1.285311   -0.341905
      8          1           0        0.545667    2.173288   -1.001981
      9          1           0        0.394264    1.990779    0.658482
     10          1           0        0.364143   -0.100019   -1.435038
     11          1           0        0.914592   -1.792695    0.304767
     12          1           0        1.037823   -0.498794    1.525711
     13          1           0        2.649246    0.397789   -0.097414
     14          1           0       -2.609322   -1.407539   -0.103238
 ---------------------------------------------------------------------
 Rotational constants (GHZ):      4.4178639      1.7932748      1.3928841
 Standard basis: 6-31+G (6D, 7F)
 There are   105 symmetry adapted basis functions of A   symmetry.
 Integral buffers will be    131072 words long.
 Raffenetti 2 integral format.
 Two-electron integral symmetry is turned on.
   105 basis functions,   210 primitive gaussians,   105 cartesian basis functions
    28 alpha electrons       28 beta electrons
       nuclear repulsion energy       318.3342454207 Hartrees.
 NAtoms=   14 NActive=   14 NUniq=   14 SFac= 1.00D+00 NAtFMM=   50 NAOKFM=F Big=F
 One-electron integrals computed using PRISM.
 NBasis=   105 RedAO= T  NBF=   105
 NBsUse=   105 1.00D-06 NBFU=   105
 Initial guess read from the read-write file.
 B after Tr=     0.000000    0.000000    0.000000
         Rot=    1.000000    0.000000    0.000000    0.000000 Ang=   0.00 deg.
 Initial guess orbital symmetries:
       Occupied  (A) (A) (A) (A) (A) (A) (A) (A) (A) (A) (A) (A)
                 (A) (A) (A) (A) (A) (A) (A) (A) (A) (A) (A) (A)
                 (A) (A) (A) (A)
       Virtual   (A) (A) (A) (A) (A) (A) (A) (A) (A) (A) (A) (A)
                 (A) (A) (A) (A) (A) (A) (A) (A) (A) (A) (A) (A)
                 (A) (A) (A) (A) (A) (A) (A) (A) (A) (A) (A) (A)
                 (A) (A) (A) (A) (A) (A) (A) (A) (A) (A) (A) (A)
                 (A) (A) (A) (A) (A) (A) (A) (A) (A) (A) (A) (A)
                 (A) (A) (A) (A) (A) (A) (A) (A) (A) (A) (A) (A)
                 (A) (A) (A) (A) (A)
 Harris functional with IExCor=  402 diagonalized for initial guess.
 ExpMin= 4.38D-02 ExpMax= 5.48D+03 ExpMxC= 8.25D+02 IAcc=2 IRadAn=         1 AccDes= 0.00D+00
 HarFok:  IExCor=  402 AccDes= 0.00D+00 IRadAn=         1 IDoV= 1
 ScaDFX=  1.000000  1.000000  1.000000  1.000000
 FoFCou: FMM=F IPFlag=           0 FMFlag=      100000 FMFlg1=           0
         NFxFlg=           0 DoJE=T BraDBF=F KetDBF=T FulRan=T
         Omega=  0.000000  0.000000  1.000000  0.000000  0.000000 ICntrl=     500 IOpCl=  0
         NMat0=    1 NMatS0=    1 NMatT0=    0 NMatD0=    1 NMtDS0=    0 NMtDT0=    0
         I1Cent=           4 NGrid=           0.
 Petite list used in FoFCou.
 Requested convergence on RMS density matrix=1.00D-08 within 128 cycles.
 Requested convergence on MAX density matrix=1.00D-06.
 Requested convergence on             energy=1.00D-06.
 No special actions if energy rises.
 Keep R1 ints in memory in canonical form, NReq=16514873.
 SCF Done:  E(RB3LYP) =  -398.845464323     A.U. after   12 cycles
             Convg  =    0.7774D-08             -V/T =  2.0059
 Calling FoFJK, ICntrl=      2127 FMM=F ISym2X=0 I1Cent= 0 IOpClX= 0 NMat=1 NMatS=1 NMatT=0.
 ***** Axes restored to original set *****
 -------------------------------------------------------------------
 Center     Atomic                   Forces (Hartrees/Bohr)
 Number     Number              X              Y              Z
 -------------------------------------------------------------------
      1        7          -0.001000580   -0.002249661    0.000569995
      2        6          -0.000179595    0.003135021   -0.000638712
      3        6           0.002441346    0.005302145    0.004124932
      4        8          -0.002141536   -0.002533276   -0.003112190
      5        6          -0.001727875    0.000288735   -0.001714418
      6        8          -0.000633338    0.000429400    0.000591540
      7        8          -0.000617227   -0.002902594   -0.000494379
      8        1           0.001321422   -0.000393504   -0.000274795
      9        1           0.000310973    0.000079827    0.000362502
     10        1          -0.000128007   -0.000519013   -0.000745173
     11        1           0.001316659    0.002340698   -0.001398179
     12        1           0.000539670   -0.000928352   -0.000253963
     13        1           0.000117092   -0.003272170    0.002619640
     14        1           0.000380996    0.001222745    0.000363200
 -------------------------------------------------------------------
 Cartesian Forces:  Max     0.005302145 RMS     0.001807520

 GradGradGradGradGradGradGradGradGradGradGradGradGradGradGradGradGradGrad
 Berny optimization.
 Using GEDIIS/GDIIS optimizer.
 Internal  Forces:  Max     0.004412273 RMS     0.001308430
 Search for a local minimum.
 Step number   4 out of a maximum of   69
 All quantities printed in internal units (Hartrees-Bohrs-Radians)
 Mixed Optimization -- RFO/linear search
 Update second derivatives using D2CorX and points    3    4
 DE= -4.11D-04 DEPred=-7.77D-04 R= 5.30D-01
 SS=  1.41D+00  RLast= 4.75D-01 DXNew= 1.4270D+00 1.4236D+00
 Trust test= 5.30D-01 RLast= 4.75D-01 DXMaxT set to 1.42D+00
 ITU=  1  1  1  0
 Use linear search instead of GDIIS.
     Eigenvalues ---    0.00227   0.00403   0.00707   0.00800   0.01656
     Eigenvalues ---    0.02087   0.02666   0.04430   0.05297   0.05690
     Eigenvalues ---    0.05939   0.06246   0.11890   0.14102   0.15882
     Eigenvalues ---    0.16013   0.16052   0.17086   0.17201   0.18811
     Eigenvalues ---    0.21889   0.24865   0.26766   0.27442   0.29557
     Eigenvalues ---    0.30622   0.32537   0.33253   0.34500   0.43483
     Eigenvalues ---    0.44564   0.45064   0.48093   0.50366   0.51169
     Eigenvalues ---    0.96784
 RFO step:  Lambda=-6.05555173D-04 EMin= 2.26975271D-03
 Quartic linear search produced a step of -0.28137.
 Iteration  1 RMS(Cart)=  0.05474637 RMS(Int)=  0.00129551
 Iteration  2 RMS(Cart)=  0.00172531 RMS(Int)=  0.00005500
 Iteration  3 RMS(Cart)=  0.00000138 RMS(Int)=  0.00005499
 Iteration  4 RMS(Cart)=  0.00000000 RMS(Int)=  0.00005499
 Variable       Old X    -DE/DX   Delta X   Delta X   Delta X     New X
                                 (Linear)    (Quad)   (Total)
    R1        2.74957   0.00220   0.00464  -0.00235   0.00229   2.75186
    R2        1.91100   0.00136   0.00252  -0.00234   0.00017   1.91117
    R3        1.91791   0.00032   0.00194  -0.00313  -0.00119   1.91672
    R4        2.86759   0.00111   0.00278  -0.00200   0.00078   2.86837
    R5        2.92814   0.00037  -0.00259   0.00675   0.00416   2.93230
    R6        2.06882   0.00078   0.00061   0.00521   0.00581   2.07464
    R7        2.33893  -0.00441  -0.00265  -0.00164  -0.00429   2.33464
    R8        2.60665  -0.00081   0.00109  -0.00487  -0.00378   2.60287
    R9        2.73326   0.00227  -0.00047   0.00316   0.00268   2.73595
   R10        2.05371   0.00202   0.00064   0.00674   0.00738   2.06109
   R11        2.08163  -0.00079  -0.00034  -0.00065  -0.00099   2.08064
   R12        1.85482   0.00370  -0.00053   0.00831   0.00778   1.86260
   R13        1.85288   0.00131   0.00070   0.00266   0.00337   1.85625
    A1        2.02426  -0.00062  -0.00536  -0.00001  -0.00519   2.01908
    A2        2.00034   0.00034  -0.00414   0.00348  -0.00046   1.99988
    A3        1.95043   0.00000  -0.00671   0.00523  -0.00120   1.94923
    A4        1.97703   0.00042   0.00164  -0.00103   0.00064   1.97767
    A5        1.89278   0.00061  -0.00005   0.00367   0.00366   1.89644
    A6        1.90012  -0.00077  -0.00386   0.00218  -0.00168   1.89845
    A7        1.93998  -0.00059   0.00397  -0.01037  -0.00639   1.93360
    A8        1.88037   0.00055  -0.00026   0.00595   0.00567   1.88604
    A9        1.87027  -0.00028  -0.00189  -0.00016  -0.00203   1.86824
   A10        2.20045  -0.00057  -0.00046   0.00245   0.00199   2.20245
   A11        1.95472  -0.00147  -0.00205  -0.00306  -0.00511   1.94961
   A12        2.12780   0.00204   0.00257   0.00069   0.00326   2.13106
   A13        1.89665   0.00127   0.00474  -0.00390   0.00084   1.89748
   A14        1.95796  -0.00253  -0.00305  -0.00703  -0.01008   1.94787
   A15        1.91622   0.00005  -0.00195   0.00109  -0.00088   1.91535
   A16        1.84965   0.00216   0.00177   0.01599   0.01778   1.86743
   A17        1.93772  -0.00168  -0.00218  -0.00723  -0.00942   1.92830
   A18        1.90509   0.00075   0.00073   0.00122   0.00196   1.90705
   A19        1.86065   0.00289   0.00824   0.00365   0.01189   1.87254
   A20        1.94486  -0.00026   0.00089  -0.00241  -0.00153   1.94333
    D1       -1.51888  -0.00004   0.05321  -0.09807  -0.04479  -1.56368
    D2        2.60200  -0.00003   0.04695  -0.08671  -0.03971   2.56229
    D3        0.57263   0.00039   0.05127  -0.08971  -0.03838   0.53425
    D4        0.79515  -0.00034   0.03366  -0.08625  -0.05264   0.74251
    D5       -1.36715  -0.00032   0.02740  -0.07489  -0.04756  -1.41471
    D6        2.88666   0.00009   0.03171  -0.07788  -0.04623   2.84043
    D7       -0.13679  -0.00038   0.01562  -0.04275  -0.02711  -0.16390
    D8        3.02708  -0.00057   0.01053  -0.04703  -0.03649   2.99059
    D9        1.99948   0.00028   0.01984  -0.04651  -0.02667   1.97281
   D10       -1.11983   0.00009   0.01475  -0.05080  -0.03606  -1.15588
   D11       -2.23954  -0.00006   0.01961  -0.04893  -0.02932  -2.26887
   D12        0.92433  -0.00024   0.01453  -0.05322  -0.03870   0.88563
   D13       -1.01742   0.00207   0.00241   0.09496   0.09736  -0.92006
   D14       -3.05671   0.00011  -0.00094   0.08188   0.08094  -2.97577
   D15        1.10496   0.00083   0.00149   0.08429   0.08578   1.19075
   D16        3.08147   0.00151  -0.00241   0.10072   0.09832  -3.10340
   D17        1.04217  -0.00046  -0.00575   0.08764   0.08190   1.12407
   D18       -1.07934   0.00027  -0.00332   0.09005   0.08674  -0.99260
   D19        1.03116   0.00133  -0.00313   0.09934   0.09620   1.12735
   D20       -1.00814  -0.00063  -0.00648   0.08626   0.07978  -0.92836
   D21       -3.12965   0.00009  -0.00405   0.08868   0.08462  -3.04503
   D22        3.13422  -0.00009   0.00492  -0.00963  -0.00473   3.12949
   D23        0.01384  -0.00023   0.00008  -0.01375  -0.01365   0.00019
   D24        0.75205   0.00103   0.04161  -0.05566  -0.01404   0.73801
   D25        2.85954  -0.00007   0.04158  -0.05704  -0.01544   2.84409
   D26       -1.35713   0.00120   0.04233  -0.04998  -0.00767  -1.36481
         Item               Value     Threshold  Converged?
 Maximum Force            0.004412     0.002500     NO 
 RMS     Force            0.001308     0.001667     YES
 Maximum Displacement     0.210769     0.010000     NO 
 RMS     Displacement     0.054885     0.006667     NO 
 Predicted change in Energy=-4.075253D-04
 GradGradGradGradGradGradGradGradGradGradGradGradGradGradGradGradGradGrad

                          Input orientation:                          
 ---------------------------------------------------------------------
 Center     Atomic      Atomic             Coordinates (Angstroms)
 Number     Number       Type             X           Y           Z
 ---------------------------------------------------------------------
      1          7           0        0.392467   -1.091681    0.799172
      2          6           0        0.088771   -0.178593   -0.293812
      3          6           0        0.662804    1.211974   -0.091937
      4          8           0        1.185803    1.642364    0.941285
      5          6           0       -1.450948   -0.117587   -0.476411
[...]
     14  0.861721D-01  0.464565D+00 -0.122575D+01  0.234084D+01  0.330418D+00
                6             7             8             9            10 
      6  0.000000D+00
      7 -0.354453D-01  0.000000D+00
      8 -0.129069D+00 -0.123765D+00  0.000000D+00
      9 -0.186433D+00 -0.911533D-01  0.403029D+01  0.000000D+00
     10 -0.830307D-01  0.123925D+00 -0.329790D+00  0.277116D+01  0.000000D+00
     11 -0.622609D+00  0.185490D+00  0.173436D+01  0.149693D+01 -0.182527D+00
     12 -0.600509D+00 -0.359326D-01  0.185901D+01 -0.818282D+00  0.209956D+01
     13 -0.914746D+01 -0.123159D+00  0.217829D+00 -0.531326D-01 -0.143921D+00
     14 -0.151211D+00 -0.907604D+01  0.126441D+01  0.120045D+01  0.207596D+01
               11            12            13            14 
     11  0.000000D+00
     12  0.159562D+01  0.000000D+00
     13  0.363310D+01  0.857466D+00  0.000000D+00
     14  0.110495D+01  0.955492D+00  0.133460D+01  0.000000D+00
 Diamagnetic spin-orbit (DSO) contribution to K (Hz):
                1             2             3             4             5 
      1  0.000000D+00
      2  0.131575D+00  0.000000D+00
      3  0.250361D-01  0.190551D+00  0.000000D+00
      4  0.348301D-03 -0.160861D-01  0.111789D+00  0.000000D+00
      5  0.200452D-01  0.150480D+00  0.534243D-01 -0.196566D-01  0.000000D+00
      6  0.705213D-02  0.108543D-01 -0.229600D-01 -0.381862D-01  0.103334D+00
      7 -0.420984D-01  0.210984D-01  0.145278D+00 -0.583789D-01  0.181259D-01
      8  0.994059D-01 -0.286293D-01 -0.126773D-02 -0.136997D-01 -0.639906D-01
      9  0.105831D+00 -0.198691D-01  0.347900D-01  0.538066D-01 -0.940384D-02
     10 -0.111163D-01  0.166962D+00  0.329020D-01 -0.632883D-01  0.113287D-01
     11 -0.573455D-01  0.955545D-02  0.298499D-01 -0.382520D-01  0.136326D+00
     12  0.659826D-02  0.126016D-01  0.422628D-01  0.391543D-02  0.139789D+00
     13  0.948012D-01  0.382954D-01 -0.195094D-01 -0.267347D-01 -0.465499D-01
     14 -0.599153D-01 -0.826463D-01 -0.477882D-01 -0.728706D-03 -0.472595D-01
                6             7             8             9            10 
      6  0.000000D+00
      7 -0.241942D-01  0.000000D+00
      8 -0.442780D-01 -0.361659D-01  0.000000D+00
      9 -0.373824D-01 -0.445880D-01 -0.123630D+00  0.000000D+00
     10  0.237512D-02  0.229142D-01  0.117053D-01 -0.102946D+00  0.000000D+00
     11 -0.234672D-01  0.427345D-01 -0.659583D-01 -0.577619D-01  0.882468D-02
     12 -0.355350D-01 -0.896434D-02 -0.685688D-01  0.304014D-01 -0.814626D-01
     13  0.923589D-01 -0.356996D-01 -0.757709D-02  0.246664D-02  0.137922D-02
     14 -0.491420D-01  0.938770D-01 -0.499034D-01 -0.481020D-01 -0.788679D-01
               11            12            13            14 
     11  0.000000D+00
     12 -0.558766D-01  0.000000D+00
     13 -0.134609D+00 -0.356843D-01  0.000000D+00
     14 -0.418864D-01 -0.369413D-01 -0.512396D-01  0.000000D+00
 Diamagnetic spin-orbit (DSO) contribution to J (Hz):
                1             2             3             4             5 
      1  0.000000D+00
      2  0.746311D-01  0.000000D+00
      3  0.142008D-01  0.376057D+00  0.000000D+00
      4 -0.106530D-03  0.171185D-01 -0.118964D+00  0.000000D+00
      5  0.113699D-01  0.296975D+00  0.105434D+00  0.209182D-01  0.000000D+00
      6 -0.215694D-02 -0.115510D-01  0.244335D-01 -0.219127D-01 -0.109966D+00
      7  0.128761D-01 -0.224525D-01 -0.154602D+00 -0.334999D-01 -0.192893D-01
      8  0.224189D+00 -0.224651D+00 -0.994779D-02  0.579673D-01 -0.502128D+00
      9  0.238679D+00 -0.155911D+00  0.272994D+00 -0.227671D+00 -0.737910D-01
     10 -0.250703D-01  0.131014D+01  0.258179D+00  0.267790D+00  0.888949D-01
     11 -0.129330D+00  0.749807D-01  0.234229D+00  0.161855D+00  0.106973D+01
     12  0.148810D-01  0.988838D-01  0.331632D+00 -0.165672D-01  0.109691D+01
     13  0.213804D+00  0.300500D+00 -0.153089D+00  0.113122D+00 -0.365273D+00
     14 -0.135126D+00 -0.648517D+00 -0.374989D+00  0.308336D-02 -0.370841D+00
                6             7             8             9            10 
      6  0.000000D+00
      7 -0.138835D-01  0.000000D+00
      8  0.187352D+00  0.153028D+00  0.000000D+00
      9  0.158175D+00  0.188664D+00 -0.385724D+01  0.000000D+00
     10 -0.100498D-01 -0.969561D-01  0.365205D+00 -0.321191D+01  0.000000D+00
     11  0.992961D-01 -0.180821D+00 -0.205790D+01 -0.180217D+01  0.275329D+00
     12  0.150358D+00  0.379306D-01 -0.213934D+01  0.948522D+00 -0.254163D+01
     13 -0.390796D+00  0.151055D+00 -0.236405D+00  0.769589D-01  0.430315D-01
     14  0.207933D+00 -0.397219D+00 -0.155698D+01 -0.150078D+01 -0.246067D+01
               11            12            13            14 
     11  0.000000D+00
     12 -0.174335D+01  0.000000D+00
     13 -0.419980D+01 -0.111335D+01  0.000000D+00
     14 -0.130686D+01 -0.115257D+01 -0.159867D+01  0.000000D+00
 Total nuclear spin-spin coupling K (Hz): 
                1             2             3             4             5 
      1  0.000000D+00
      2  0.486057D+01  0.000000D+00
      3 -0.904672D+00  0.273975D+02  0.000000D+00
      4 -0.693471D+00  0.105309D+01 -0.289744D+02  0.000000D+00
      5  0.441005D+01  0.167731D+02  0.178260D+01  0.361563D+00  0.000000D+00
      6  0.250216D+01  0.541540D+00 -0.153713D+00  0.147075D+00 -0.218650D+02
      7 -0.142588D+01  0.177747D+02 -0.367642D+02 -0.125598D+02 -0.618067D+00
      8  0.224241D+02 -0.221113D+00 -0.904531D-01 -0.546260D-01  0.957140D+00
      9  0.217519D+02 -0.366463D+00  0.668940D+00 -0.135710D+00 -0.285858D-01
     10  0.527015D+00  0.184860D+02 -0.676103D+00  0.248079D+00 -0.860029D+00
     11  0.161088D+01 -0.306028D-01  0.289618D-01 -0.246464D-01  0.196151D+02
     12  0.614129D+00 -0.110949D+00  0.162706D+00  0.436113D-01  0.186728D+02
     13 -0.405540D+00  0.405392D+00 -0.527533D-02 -0.501051D-02 -0.468620D+00
     14 -0.503686D-01  0.951001D+00 -0.802082D+00 -0.484874D+00 -0.705596D-01
                6             7             8             9            10 
      6  0.000000D+00
      7  0.311385D-01  0.000000D+00
      8  0.938020D-01 -0.754214D-01  0.000000D+00
      9 -0.335550D-01 -0.727988D-01 -0.332227D+00  0.000000D+00
     10  0.957201D-01 -0.579396D-01  0.228133D+00  0.425025D+00  0.000000D+00
     11  0.301379D+01  0.115954D+00  0.648756D-01 -0.227686D-01  0.162550D+00
     12  0.861242D+00  0.200159D-01 -0.248117D-01  0.333291D-02  0.341627D+00
     13  0.172403D+02  0.719954D-01  0.116386D-01  0.133522D-02 -0.107898D-01
     14 -0.110376D-01  0.177448D+02 -0.150194D-01 -0.126599D-01 -0.181775D-01
               11            12            13            14 
     11  0.000000D+00
     12 -0.356232D+00  0.000000D+00
     13  0.458751D+00 -0.748149D-02  0.000000D+00
     14 -0.448333D-02 -0.107696D-02 -0.547956D-02  0.000000D+00
 Total nuclear spin-spin coupling J (Hz): 
                1             2             3             4             5 
      1  0.000000D+00
      2  0.275698D+01  0.000000D+00
      3 -0.513141D+00  0.540696D+02  0.000000D+00
      4  0.212103D+00 -0.112068D+01  0.308339D+02  0.000000D+00
      5  0.250144D+01  0.331021D+02  0.351800D+01 -0.384769D+00  0.000000D+00
      6 -0.765305D+00 -0.576296D+00  0.163579D+00  0.843972D-01  0.232683D+02
      7  0.436115D+00 -0.189155D+02  0.391238D+02 -0.720728D+01  0.657735D+00
      8  0.505728D+02 -0.173505D+01 -0.709776D+00  0.231138D+00  0.751058D+01
      9  0.490568D+02 -0.287560D+01  0.524911D+01  0.574225D+00 -0.224310D+00
     10  0.118857D+01  0.145058D+03 -0.530531D+01 -0.104969D+01 -0.674856D+01
     11  0.363300D+01 -0.240137D+00  0.227261D+00  0.104286D+00  0.153918D+03
     12  0.138504D+01 -0.870609D+00  0.127674D+01 -0.184531D+00  0.146523D+03
     13 -0.914607D+00  0.318107D+01 -0.413950D-01  0.212008D-01 -0.367722D+01
     14 -0.113596D+00  0.746241D+01 -0.629386D+01  0.205164D+01 -0.553675D+00
                6             7             8             9            10 
      6  0.000000D+00
      7  0.178684D-01  0.000000D+00
      8 -0.396902D+00  0.319129D+00  0.000000D+00
      9  0.141980D+00  0.308031D+00 -0.103655D+02  0.000000D+00
     10 -0.405018D+00  0.245158D+00  0.711774D+01  0.132608D+02  0.000000D+00
     11 -0.127522D+02 -0.490632D+00  0.202412D+01 -0.710378D+00  0.507155D+01
     12 -0.364415D+01 -0.846926D-01 -0.774123D+00  0.103987D+00  0.106587D+02
     13 -0.729484D+02 -0.304632D+00  0.363124D+00  0.416588D-01 -0.336642D+00
     14  0.467033D-01 -0.750832D+02 -0.468606D+00 -0.394989D+00 -0.567136D+00
               11            12            13            14 
     11  0.000000D+00
     12 -0.111144D+02  0.000000D+00
     13  0.143130D+02 -0.233422D+00  0.000000D+00
     14 -0.139880D+00 -0.336012D-01 -0.170962D+00  0.000000D+00
 End of Minotr Frequency-dependent properties file   721 does not exist.
 End of Minotr Frequency-dependent properties file   722 does not exist.

 **********************************************************************

            Population analysis using the SCF density.

 **********************************************************************

 Orbital symmetries:
       Occupied  (A) (A) (A) (A) (A) (A) (A) (A) (A) (A) (A) (A)
                 (A) (A) (A) (A) (A) (A) (A) (A) (A) (A) (A) (A)
                 (A) (A) (A) (A)
       Virtual   (A) (A) (A) (A) (A) (A) (A) (A) (A) (A) (A) (A)
                 (A) (A) (A) (A) (A) (A) (A) (A) (A) (A) (A) (A)
                 (A) (A) (A) (A) (A) (A) (A) (A) (A) (A) (A) (A)
                 (A) (A) (A) (A) (A) (A) (A) (A) (A) (A) (A) (A)
                 (A) (A) (A) (A) (A) (A) (A) (A) (A) (A) (A) (A)
                 (A) (A) (A) (A) (A) (A) (A) (A) (A) (A) (A) (A)
                 (A) (A) (A) (A) (A) (A) (A) (A) (A) (A) (A) (A)
                 (A) (A) (A) (A) (A) (A) (A) (A) (A) (A) (A) (A)
                 (A) (A) (A) (A) (A) (A) (A) (A) (A) (A) (A) (A)
                 (A) (A) (A) (A) (A) (A) (A) (A) (A) (A) (A) (A)
                 (A) (A) (A) (A) (A) (A) (A) (A) (A) (A) (A) (A)
                 (A) (A) (A) (A) (A) (A) (A) (A) (A) (A) (A) (A)
                 (A) (A) (A) (A) (A) (A) (A) (A) (A) (A) (A) (A)
                 (A) (A) (A) (A) (A) (A) (A) (A) (A) (A) (A) (A)
                 (A) (A) (A) (A) (A) (A) (A)
 The electronic state is 1-A.
 Alpha  occ. eigenvalues --  -19.19468 -19.13971 -19.12301 -14.32228 -10.32620
 Alpha  occ. eigenvalues --  -10.23510 -10.23081  -1.13631  -1.04821  -1.03166
 Alpha  occ. eigenvalues --   -0.91550  -0.76537  -0.67430  -0.61576  -0.55151
 Alpha  occ. eigenvalues --   -0.52851  -0.51321  -0.49080  -0.47283  -0.46156
 Alpha  occ. eigenvalues --   -0.43511  -0.42108  -0.39408  -0.35701  -0.34468
 Alpha  occ. eigenvalues --   -0.31000  -0.29186  -0.27475
 Alpha virt. eigenvalues --   -0.02577  -0.02002  -0.00829   0.01016   0.01941
 Alpha virt. eigenvalues --    0.03137   0.04239   0.05001   0.06682   0.06998
 Alpha virt. eigenvalues --    0.08173   0.08857   0.09409   0.10059   0.11204
 Alpha virt. eigenvalues --    0.11356   0.12677   0.13363   0.13770   0.14182
 Alpha virt. eigenvalues --    0.14801   0.15892   0.17508   0.17946   0.18917
 Alpha virt. eigenvalues --    0.19892   0.20785   0.21082   0.22389   0.23128
 Alpha virt. eigenvalues --    0.23544   0.24125   0.25114   0.25407   0.27416
 Alpha virt. eigenvalues --    0.28014   0.28307   0.29027   0.30810   0.31596
 Alpha virt. eigenvalues --    0.31609   0.33467   0.33867   0.34992   0.35505
 Alpha virt. eigenvalues --    0.37523   0.38931   0.39895   0.47005   0.48304
 Alpha virt. eigenvalues --    0.50415   0.54066   0.55147   0.55810   0.56835
 Alpha virt. eigenvalues --    0.58947   0.59512   0.61298   0.63408   0.67147
 Alpha virt. eigenvalues --    0.69002   0.69813   0.70963   0.71763   0.73369
 Alpha virt. eigenvalues --    0.81470   0.83298   0.86754   0.88176   0.94356
 Alpha virt. eigenvalues --    0.97586   1.01298   1.04155   1.06113   1.08598
 Alpha virt. eigenvalues --    1.12795   1.15384   1.16237   1.17031   1.18942
 Alpha virt. eigenvalues --    1.20138   1.22692   1.23044   1.26162   1.28021
 Alpha virt. eigenvalues --    1.34855   1.40796   1.43918   1.46448   1.49707
 Alpha virt. eigenvalues --    1.52047   1.53492   1.54497   1.56346   1.58008
 Alpha virt. eigenvalues --    1.60281   1.62889   1.64222   1.65855   1.69234
 Alpha virt. eigenvalues --    1.70094   1.75981   1.77341   1.81940   1.86835
 Alpha virt. eigenvalues --    1.90170   1.93279   1.94429   1.97748   1.98786
 Alpha virt. eigenvalues --    2.04441   2.08927   2.11283   2.16283   2.19772
 Alpha virt. eigenvalues --    2.25424   2.28588   2.44893   2.47426   2.49073
 Alpha virt. eigenvalues --    2.52771   2.54067   2.57848   2.61890   2.63599
 Alpha virt. eigenvalues --    2.69556   2.71470   2.73451   2.77724   2.79574
 Alpha virt. eigenvalues --    2.84587   2.86807   2.89460   2.93117   2.96153
 Alpha virt. eigenvalues --    2.98605   3.03738   3.08521   3.09960   3.14851
 Alpha virt. eigenvalues --    3.16413   3.19342   3.24036   3.28193   3.35146
 Alpha virt. eigenvalues --    3.36073   3.54480   3.58571   3.65703   3.75482
 Alpha virt. eigenvalues --    3.80543   3.88524   3.99646   4.03851   4.04563
 Alpha virt. eigenvalues --    4.10405   4.27109   4.71759   4.83497   4.94546
 Alpha virt. eigenvalues --    5.04098   5.07290   5.15786   5.36857   5.41134
 Alpha virt. eigenvalues --    5.58660   5.63835   5.82218  23.77757  23.79473
 Alpha virt. eigenvalues --   23.84306  35.58385  49.85110  49.91981  49.98610
          Condensed to atoms (all electrons):
              1          2          3          4          5          6
     1  N    6.720775  -0.157945   0.001522  -0.012346   0.130925  -0.019759
     2  C   -0.157945   8.211337  -0.847146  -0.059767  -0.899857  -0.037430
     3  C    0.001522  -0.847146   6.115962   0.460653   0.088004   0.019384
     4  O   -0.012346  -0.059767   0.460653   8.056475  -0.027277  -0.001627
     5  C    0.130925  -0.899857   0.088004  -0.027277   6.165853   0.207418
     6  O   -0.019759  -0.037430   0.019384  -0.001627   0.207418   7.958401
     7  O    0.031448  -0.283238   0.208298  -0.135960   0.012258  -0.003218
     8  H    0.379697  -0.035381  -0.004245   0.001089   0.015734  -0.002715
     9  H    0.389419  -0.046939  -0.002713   0.011813  -0.001613  -0.001155
    10  H   -0.094108   0.628800  -0.115961  -0.004408  -0.179308   0.014604
    11  H    0.033232  -0.198647  -0.004601   0.005212   0.554387  -0.091221
    12  H   -0.044656   0.248248  -0.017278  -0.008375   0.103777  -0.037819
    13  H    0.034538  -0.112690   0.014420   0.000700   0.045577   0.252236
    14  H   -0.000623  -0.041718   0.041895  -0.001092   0.008186  -0.000171
              7          8          9         10         11         12
     1  N    0.031448   0.379697   0.389419  -0.094108   0.033232  -0.044656
     2  C   -0.283238  -0.035381  -0.046939   0.628800  -0.198647   0.248248
     3  C    0.208298  -0.004245  -0.002713  -0.115961  -0.004601  -0.017278
     4  O   -0.135960   0.001089   0.011813  -0.004408   0.005212  -0.008375
     5  C    0.012258   0.015734  -0.001613  -0.179308   0.554387   0.103777
     6  O   -0.003218  -0.002715  -0.001155   0.014604  -0.091221  -0.037819
     7  O    8.089844   0.000571   0.002271  -0.017582   0.024104  -0.012059
     8  H    0.000571   0.447530  -0.039770  -0.017597   0.001763  -0.001723
     9  H    0.002271  -0.039770   0.433276   0.010057   0.001380  -0.004312
    10  H   -0.017582  -0.017597   0.010057   0.548139  -0.032174   0.026390
    11  H    0.024104   0.001763   0.001380  -0.032174   0.608777  -0.092533
    12  H   -0.012059  -0.001723  -0.004312   0.026390  -0.092533   0.690244
    13  H    0.001124   0.001320   0.002267  -0.012637   0.020566  -0.016235
    14  H    0.239054  -0.000663   0.000428   0.002216  -0.001011   0.000215
             13         14
     1  N    0.034538  -0.000623
     2  C   -0.112690  -0.041718
     3  C    0.014420   0.041895
     4  O    0.000700  -0.001092
     5  C    0.045577   0.008186
     6  O    0.252236  -0.000171
     7  O    0.001124   0.239054
     8  H    0.001320  -0.000663
     9  H    0.002267   0.000428
    10  H   -0.012637   0.002216
    11  H    0.020566  -0.001011
    12  H   -0.016235   0.000215
    13  H    0.496887   0.000086
    14  H    0.000086   0.464540
 Mulliken atomic charges:
              1
     1  N   -0.392118
     2  C   -0.367627
     3  C    0.041806
     4  O   -0.285089
     5  C   -0.224064
     6  O   -0.256925
     7  O   -0.156916
     8  H    0.254390
     9  H    0.245591
    10  H    0.243571
    11  H    0.170765
    12  H    0.166115
    13  H    0.271841
    14  H    0.288659
 Sum of Mulliken atomic charges =   0.00000
 Mulliken charges with hydrogens summed into heavy atoms:
              1
     1  N    0.107863
     2  C   -0.124056
     3  C    0.041806
     4  O   -0.285089
     5  C    0.112816
     6  O    0.014916
     7  O    0.131743
 Sum of Mulliken charges with hydrogens summed into heavy atoms =   0.00000
 Electronic spatial extent (au):  <R**2>=            825.0287
 Charge=              0.0000 electrons
 Dipole moment (field-independent basis, Debye):
    X=             -1.9081    Y=              0.3575    Z=             -0.7738  Tot=              2.0898
 Quadrupole moment (field-independent basis, Debye-Ang):
   XX=            -48.0881   YY=            -41.1271   ZZ=            -41.0757
   XY=              7.4919   XZ=              1.6554   YZ=             -2.9671
 Traceless Quadrupole moment (field-independent basis, Debye-Ang):
   XX=             -4.6578   YY=              2.3032   ZZ=              2.3546
   XY=              7.4919   XZ=              1.6554   YZ=             -2.9671
 Octapole moment (field-independent basis, Debye-Ang**2):
  XXX=            -35.4375  YYY=              4.5993  ZZZ=             -2.3753  XYY=             -4.0408
  XXY=             -6.0608  XXZ=             -3.7209  XZZ=              1.3173  YZZ=              3.2031
  YYZ=             -0.8018  XYZ=              3.8558
 Hexadecapole moment (field-independent basis, Debye-Ang**3):
 XXXX=           -630.3284 YYYY=           -251.3482 ZZZZ=            -93.6714 XXXY=             84.9835
 XXXZ=              6.0650 YYYX=              3.6161 YYYZ=             -5.6013 ZZZX=             -0.3773
 ZZZY=             -2.4896 XXYY=           -156.0346 XXZZ=           -130.1553 YYZZ=            -56.7622
 XXYZ=             -5.7956 YYXZ=             -0.7944 ZZXY=              2.5102
 N-N= 3.214746685614D+02 E-N=-1.579600399269D+03  KE= 3.976854828374D+02

 Test job not archived.
 1\1\GINC-EBI-249\SP\RB3LYP\Gen\C3H7N1O3\ROOT\08-Aug-2012\0\\#N Geom=Al
 lCheck Guess=TCheck SCRF=Check Test GenChk RB3LYP/ChkBas NMR=ReadFC IO
 p(3/6=22)\\Geometry generated by LasCMD Energy (kcal/mol) = -138.90688
 0 [Gas-Phase]\\0,1\N,0,0.387414234,-1.1138937051,0.7968908485\C,0,0.08
 08625321,-0.201412874,-0.2995684768\C,0,0.6425077342,1.2003654622,-0.0
 967346332\O,0,1.0652881932,1.6343514916,0.945784409\C,0,-1.4568860852,
 -0.1401164855,-0.4686288928\O,0,-1.97691492,-1.4405802989,-0.636923399
 5\O,0,0.5806650181,1.9361323889,-1.23006611\H,0,1.3122366298,-1.516313
 943,0.6974551905\H,0,0.3740457998,-0.6152400062,1.6828266031\H,0,0.492
 1529515,-0.60809801,-1.2271289535\H,0,-1.7214976894,0.4408275869,-1.35
 25857953\H,0,-1.8942262953,0.3505798002,0.414381754\H,0,-1.5344472961,
 -1.9871294642,0.0299854292\H,0,0.9153991934,2.822528057,-1.023687973\\
 Version=EM64L-G09RevB.01\State=1-A\HF=-399.0978905\RMSD=4.793e-09\Dipo
 le=0.7182491,0.3955694,-0.0605261\Quadrupole=-1.4119949,2.3646105,-0.9
 526156,-4.0130879,-3.0679733,-4.0788374\PG=C01 [X(C3H7N1O3)]\\@


 NO HUMAN INVESTIGATION CAN BECOME REAL SCIENCE
 WITHOUT GOING THROUGH MATHEMATICAL PEOPLE.
 -- LEONARDO DA VINCI, IN "PENSIERI" CA. 1492
 Job cpu time:  0 days  2 hours 16 minutes 42.2 seconds.
 File lengths (MBytes):  RWF=    139 Int=      0 D2E=      0 Chk=      9 Scr=      1
 Normal termination of Gaussian 09 at Wed Aug  8 17:40:52 2012.
